LAMMPS data file via write_data, version 27 Jun 2024, timestep = 0, units = real

3471 atoms
4 atom types
10 bonds
1 bond types
5 angles
1 angle types

0.03 40.149999 xlo xhi
-0.061998 39.538 ylo yhi
-0.327001 39.753001 zlo zhi

Atom Type Labels

1 O
2 Si
3 OC
4 CO

Bond Type Labels

1 CO-OC

Angle Type Labels

1 OC-CO-OC

Masses

1 15.9994
2 28.0855
3 15.9994
4 12.011

Pair Coeffs # lj/cut/coul/long

1 0.25478 2.708
2 0.03696 0.677
3 0.164858 3.011
4 0.05894 2.789

Bond Coeffs # harmonic

1 0 1.18

Angle Coeffs # harmonic

1 0 180

Atoms # full

505 1 1 -0.4 3.421 0.878 4.146 0 0 0
673 1 1 -0.4 5.846 2.558 1.393 0 0 0
733 1 1 -0.4 5.846 7.311 1.393 0 0 0
769 1 1 -0.4 4.086 0.898 0.361 0 0 0
865 1 1 -0.4 5.898 0.02 2.055 0 0 0
961 1 1 -0.4 2.16 2.497 1.16 0 0 0
1021 1 1 -0.4 2.16 7.372 1.16 0 0 0
1465 1 1 -0.4 0.179 2.866 2.85 0 0 0
1525 1 1 -0.4 0.179 7.003 2.85 0 0 0
1561 1 1 -0.4 2.65 3.334 3.605 0 0 0
1621 1 1 -0.4 2.65 6.535 3.605 0 0 0
1657 1 1 -0.4 1.481 4.935 1.881 0 0 0
1705 1 1 -0.4 3.582 2.742 5.994 0 0 0
1765 1 1 -0.4 3.582 7.127 5.994 0 0 0
1801 1 1 -0.4 5.203 2.799 3.929 0 0 0
1861 1 1 -0.4 5.203 7.07 3.929 0 0 0
1897 1 1 -0.4 4.133 4.935 7.332 0 0 0
1945 1 1 -0.4 6.075 3.33 6.575 0 0 0
2005 1 1 -0.4 6.075 6.539 6.575 0 0 0
2185 1 1 -0.4 7.68 3.217 3.162 0 0 0
2245 1 1 -0.4 7.68 6.652 3.162 0 0 0
2281 1 1 -0.4 5.794 4.935 2.514 0 0 0
2497 2 2 0.8 5.609 1.058 0.861 0 0 0
2593 2 2 0.8 2.503 1.015 0.632 0 0 0
2905 2 2 0.8 1.617 3.407 2.372 0 0 0
2965 2 2 0.8 1.617 6.462 2.372 0 0 0
3001 2 2 0.8 3.713 2.438 4.417 0 0 0
3061 2 2 0.8 3.713 7.431 4.417 0 0 0
3097 2 2 0.8 4.554 3.399 7.099 0 0 0
3157 2 2 0.8 4.554 6.47 7.099 0 0 0
3193 2 2 0.8 7.664 3.397 6.811 0 0 0
3253 2 2 0.8 7.664 6.472 6.811 0 0 0
3385 2 2 0.8 6.133 3.379 2.749 0 0 0
3445 2 2 0.8 6.133 6.49 2.749 0 0 0
493 1 1 -0.4 13.466 0.878 2.425 0 0 0
709 1 1 -0.4 15.891 2.558 5.178 0 0 0
745 1 1 -0.4 15.891 7.311 5.178 0 0 0
805 1 1 -0.4 14.131 0.898 6.21 0 0 0
901 1 1 -0.4 15.943 0.02 4.516 0 0 0
997 1 1 -0.4 12.205 2.497 5.411 0 0 0
1033 1 1 -0.4 12.205 7.372 5.411 0 0 0
1093 1 1 -0.4 11.745 0.73 7.303 0 0 0
1273 1 1 -0.4 8.582 0.811 3.722 0 0 0
1453 1 1 -0.4 10.224 2.866 3.721 0 0 0
1489 1 1 -0.4 10.224 7.003 3.721 0 0 0
1549 1 1 -0.4 12.695 3.334 2.966 0 0 0
1585 1 1 -0.4 12.695 6.535 2.966 0 0 0
1645 1 1 -0.4 11.526 4.935 4.69 0 0 0
1693 1 1 -0.4 13.627 2.742 0.577 0 0 0
1729 1 1 -0.4 13.627 7.127 0.577 0 0 0
1789 1 1 -0.4 15.248 2.799 2.642 0 0 0
1825 1 1 -0.4 15.248 7.07 2.642 0 0 0
2041 1 1 -0.4 8.14 4.935 6.84 0 0 0
2089 1 1 -0.4 8.42 2.625 5.618 0 0 0
2149 1 1 -0.4 8.42 7.244 5.618 0 0 0
2269 1 1 -0.4 15.839 4.935 4.057 0 0 0
2533 2 2 0.8 15.654 1.058 5.71 0 0 0
2629 2 2 0.8 12.548 1.015 5.939 0 0 0
2893 2 2 0.8 11.662 3.407 4.199 0 0 0
2929 2 2 0.8 11.662 6.462 4.199 0 0 0
2989 2 2 0.8 13.758 2.438 2.154 0 0 0
3025 2 2 0.8 13.758 7.431 2.154 0 0 0
3289 2 2 0.8 8.725 2.38 4.057 0 0 0
3349 2 2 0.8 8.725 7.489 4.057 0 0 0
421 1 1 -0.4 16.655001 0.76 6.936 0 0 0
511 1 1 -0.4 23.511 0.878 4.146 0 0 0
967 1 1 -0.4 22.25 2.497 1.16 0 0 0
1027 1 1 -0.4 22.25 7.372 1.16 0 0 0
1261 1 1 -0.4 18.627001 0.811 2.849 0 0 0
1471 1 1 -0.4 20.268999 2.866 2.85 0 0 0
1531 1 1 -0.4 20.268999 7.003 2.85 0 0 0
1567 1 1 -0.4 22.74 3.334 3.605 0 0 0
1627 1 1 -0.4 22.74 6.535 3.605 0 0 0
1663 1 1 -0.4 21.570999 4.935 1.881 0 0 0
1711 1 1 -0.4 23.672001 2.742 5.994 0 0 0
1771 1 1 -0.4 23.672001 7.127 5.994 0 0 0
2077 1 1 -0.4 18.465 2.625 0.953 0 0 0
2113 1 1 -0.4 18.465 7.244 0.953 0 0 0
2173 1 1 -0.4 17.725 3.217 3.409 0 0 0
2209 1 1 -0.4 17.725 6.652 3.409 0 0 0
2599 2 2 0.8 22.593 1.015 0.632 0 0 0
2911 2 2 0.8 21.707001 3.407 2.372 0 0 0
2971 2 2 0.8 21.707001 6.462 2.372 0 0 0
3007 2 2 0.8 23.802999 2.438 4.417 0 0 0
3067 2 2 0.8 23.802999 7.431 4.417 0 0 0
3277 2 2 0.8 18.77 2.38 2.514 0 0 0
3313 2 2 0.8 18.77 7.489 2.514 0 0 0
3373 2 2 0.8 16.177999 3.379 3.822 0 0 0
3409 2 2 0.8 16.177999 6.49 3.822 0 0 0
679 1 1 -0.4 25.936001 2.558 1.393 0 0 0
739 1 1 -0.4 25.936001 7.311 1.393 0 0 0
775 1 1 -0.4 24.176001 0.898 0.361 0 0 0
871 1 1 -0.4 25.988001 0.02 2.055 0 0 0
1099 1 1 -0.4 31.834999 0.73 7.303 0 0 0
1279 1 1 -0.4 28.672001 0.811 3.722 0 0 0
1459 1 1 -0.4 30.313999 2.866 3.721 0 0 0
1495 1 1 -0.4 30.313999 7.003 3.721 0 0 0
1651 1 1 -0.4 31.615999 4.935 4.69 0 0 0
1807 1 1 -0.4 25.292999 2.799 3.929 0 0 0
1867 1 1 -0.4 25.292999 7.07 3.929 0 0 0
1903 1 1 -0.4 24.223 4.935 7.332 0 0 0
1951 1 1 -0.4 26.165001 3.33 6.575 0 0 0
2011 1 1 -0.4 26.165001 6.539 6.575 0 0 0
2047 1 1 -0.4 28.23 4.935 6.84 0 0 0
2095 1 1 -0.4 28.51 2.625 5.618 0 0 0
2155 1 1 -0.4 28.51 7.244 5.618 0 0 0
2191 1 1 -0.4 27.77 3.217 3.162 0 0 0
2251 1 1 -0.4 27.77 6.652 3.162 0 0 0
2287 1 1 -0.4 25.884001 4.935 2.514 0 0 0
2503 2 2 0.8 25.698999 1.058 0.861 0 0 0
2899 2 2 0.8 31.752001 3.407 4.199 0 0 0
2935 2 2 0.8 31.752001 6.462 4.199 0 0 0
3103 2 2 0.8 24.643999 3.399 7.099 0 0 0
3163 2 2 0.8 24.643999 6.47 7.099 0 0 0
3199 2 2 0.8 27.754 3.397 6.811 0 0 0
3259 2 2 0.8 27.754 6.472 6.811 0 0 0
3295 2 2 0.8 28.815001 2.38 4.057 0 0 0
3355 2 2 0.8 28.815001 7.489 4.057 0 0 0
3391 2 2 0.8 26.223 3.379 2.749 0 0 0
3451 2 2 0.8 26.223 6.49 2.749 0 0 0
427 1 1 -0.4 36.744999 0.76 6.936 0 0 0
499 1 1 -0.4 33.556 0.878 2.425 0 0 0
715 1 1 -0.4 35.980999 2.558 5.178 0 0 0
751 1 1 -0.4 35.980999 7.311 5.178 0 0 0
811 1 1 -0.4 34.221001 0.898 6.21 0 0 0
907 1 1 -0.4 36.033001 0.02 4.516 0 0 0
1003 1 1 -0.4 32.294998 2.497 5.411 0 0 0
1039 1 1 -0.4 32.294998 7.372 5.411 0 0 0
1267 1 1 -0.4 38.716999 0.811 2.849 0 0 0
1555 1 1 -0.4 32.785 3.334 2.966 0 0 0
1591 1 1 -0.4 32.785 6.535 2.966 0 0 0
1699 1 1 -0.4 33.716999 2.742 0.577 0 0 0
1735 1 1 -0.4 33.716999 7.127 0.577 0 0 0
1795 1 1 -0.4 35.338001 2.799 2.642 0 0 0
1831 1 1 -0.4 35.338001 7.07 2.642 0 0 0
2083 1 1 -0.4 38.555 2.625 0.953 0 0 0
2119 1 1 -0.4 38.555 7.244 0.953 0 0 0
2179 1 1 -0.4 37.814999 3.217 3.409 0 0 0
2215 1 1 -0.4 37.814999 6.652 3.409 0 0 0
2275 1 1 -0.4 35.929001 4.935 4.057 0 0 0
2539 2 2 0.8 35.743999 1.058 5.71 0 0 0
2635 2 2 0.8 32.638 1.015 5.939 0 0 0
2995 2 2 0.8 33.848 2.438 2.154 0 0 0
3031 2 2 0.8 33.848 7.431 2.154 0 0 0
3283 2 2 0.8 38.860001 2.38 2.514 0 0 0
3319 2 2 0.8 38.860001 7.489 2.514 0 0 0
3379 2 2 0.8 36.268002 3.379 3.822 0 0 0
3415 2 2 0.8 36.268002 6.49 3.822 0 0 0
91 1 1 -0.4 0.035998999999996784 11.249 2.652 1 0 0
181 1 1 -0.4 2.26 11.336 3.953 0 0 0
277 1 1 -0.4 2.019 12.565 1.644 0 0 0
373 1 1 -0.4 2.065 9.936 1.743 0 0 0
469 1 1 -0.4 3.435 10.629 6.206 0 0 0
565 1 1 -0.4 3.421 8.991 4.146 0 0 0
661 1 1 -0.4 4.88 11.178 4.082 0 0 0
829 1 1 -0.4 4.086 8.971 0.361 0 0 0
853 1 1 -0.4 5.959 10.767 6.932 0 0 0
925 1 1 -0.4 5.898 9.849 2.055 0 0 0
1237 1 1 -0.4 7.431 11.411 3.509 0 0 0
1429 1 1 -0.4 5.623 12.461 1.913 0 0 0
1873 1 1 -0.4 5.912 14.804 0.761 0 0 0
1981 1 1 -0.4 3.97 13.199 0.004 0 0 0
2017 1 1 -0.4 1.905 14.804 0.269 0 0 0
2389 2 2 0.8 1.579 11.272 2.494 0 0 0
2485 2 2 0.8 3.498 10.532 4.6 0 0 0
2557 2 2 0.8 5.609 8.811 0.861 0 0 0
2581 2 2 0.8 4.436 10.927 7.432 0 0 0
2653 2 2 0.8 2.503 8.854 0.632 0 0 0
2677 2 2 0.8 7.542 10.884 7.203 0 0 0
2869 2 2 0.8 5.959 11.225 2.887 0 0 0
3133 2 2 0.8 5.491 13.268 0.528 0 0 0
3229 2 2 0.8 2.381 13.266 0.24 0 0 0
49 1 1 -0.4 10.021 11.249 3.919 0 0 0
145 1 1 -0.4 12.305 11.336 2.618 0 0 0
241 1 1 -0.4 12.064 12.565 4.927 0 0 0
337 1 1 -0.4 12.11 9.936 4.828 0 0 0
433 1 1 -0.4 13.48 10.629 0.365 0 0 0
529 1 1 -0.4 13.466 8.991 2.425 0 0 0
625 1 1 -0.4 14.925 11.178 2.489 0 0 0
841 1 1 -0.4 14.131 8.971 6.21 0 0 0
937 1 1 -0.4 15.943 9.849 4.516 0 0 0
1129 1 1 -0.4 11.745 9.139 7.303 0 0 0
1141 1 1 -0.4 8.345 10.599 5.839 0 0 0
1333 1 1 -0.4 8.582 9.058 3.722 0 0 0
1393 1 1 -0.4 15.668 12.461 4.658 0 0 0
1909 1 1 -0.4 15.957 14.804 5.81 0 0 0
1993 1 1 -0.4 14.015 13.199 6.567 0 0 0
2053 1 1 -0.4 11.95 14.804 6.302 0 0 0
2137 1 1 -0.4 11.67 12.494 7.524 0 0 0
2353 2 2 0.8 11.624 11.272 4.077 0 0 0
2449 2 2 0.8 13.543 10.532 1.971 0 0 0
2569 2 2 0.8 15.654 8.811 5.71 0 0 0
2665 2 2 0.8 12.548 8.854 5.939 0 0 0
2773 2 2 0.8 8.597 10.58 4.249 0 0 0
2833 2 2 0.8 16.004 11.225 3.684 0 0 0
3145 2 2 0.8 15.536 13.268 6.043 0 0 0
3241 2 2 0.8 12.426 13.266 6.331 0 0 0
85 1 1 -0.4 20.066 11.249 2.652 0 0 0
187 1 1 -0.4 22.35 11.336 3.953 0 0 0
283 1 1 -0.4 22.108999 12.565 1.644 0 0 0
379 1 1 -0.4 22.155001 9.936 1.743 0 0 0
457 1 1 -0.4 16.655001 9.109 6.936 0 0 0
475 1 1 -0.4 23.525 10.629 6.206 0 0 0
571 1 1 -0.4 23.511 8.991 4.146 0 0 0
1105 1 1 -0.4 18.389999 10.599 0.732 0 0 0
1201 1 1 -0.4 17.476 11.411 3.062 0 0 0
1297 1 1 -0.4 18.627001 9.058 2.849 0 0 0
1753 1 1 -0.4 16.507999 12.611 7.148 0 0 0
1987 1 1 -0.4 24.059999 13.199 0.004 0 0 0
2023 1 1 -0.4 21.995001 14.804 0.269 0 0 0
2395 2 2 0.8 21.669001 11.272 2.494 0 0 0
2491 2 2 0.8 23.587999 10.532 4.6 0 0 0
2659 2 2 0.8 22.593 8.854 0.632 0 0 0
2737 2 2 0.8 18.642 10.58 2.322 0 0 0
3235 2 2 0.8 22.471001 13.266 0.24 0 0 0
55 1 1 -0.4 30.111 11.249 3.919 0 0 0
667 1 1 -0.4 24.969999 11.178 4.082 0 0 0
835 1 1 -0.4 24.176001 8.971 0.361 0 0 0
859 1 1 -0.4 26.049 10.767 6.932 0 0 0
931 1 1 -0.4 25.988001 9.849 2.055 0 0 0
1135 1 1 -0.4 31.834999 9.139 7.303 0 0 0
1147 1 1 -0.4 28.434999 10.599 5.839 0 0 0
1243 1 1 -0.4 27.521 11.411 3.509 0 0 0
1339 1 1 -0.4 28.672001 9.058 3.722 0 0 0
1435 1 1 -0.4 25.712999 12.461 1.913 0 0 0
1879 1 1 -0.4 26.002001 14.804 0.761 0 0 0
2059 1 1 -0.4 32.040001 14.804 6.302 0 0 0
2143 1 1 -0.4 31.76 12.494 7.524 0 0 0
2359 2 2 0.8 31.714001 11.272 4.077 0 0 0
2563 2 2 0.8 25.698999 8.811 0.861 0 0 0
2587 2 2 0.8 24.525999 10.927 7.432 0 0 0
2683 2 2 0.8 27.632 10.884 7.203 0 0 0
2779 2 2 0.8 28.687 10.58 4.249 0 0 0
2875 2 2 0.8 26.049 11.225 2.887 0 0 0
3139 2 2 0.8 25.580999 13.268 0.528 0 0 0
151 1 1 -0.4 32.395 11.336 2.618 0 0 0
247 1 1 -0.4 32.153999 12.565 4.927 0 0 0
343 1 1 -0.4 32.200001 9.936 4.828 0 0 0
439 1 1 -0.4 33.57 10.629 0.365 0 0 0
463 1 1 -0.4 36.744999 9.109 6.936 0 0 0
535 1 1 -0.4 33.556 8.991 2.425 0 0 0
631 1 1 -0.4 35.014999 11.178 2.489 0 0 0
847 1 1 -0.4 34.221001 8.971 6.21 0 0 0
943 1 1 -0.4 36.033001 9.849 4.516 0 0 0
1111 1 1 -0.4 38.48 10.599 0.732 0 0 0
1207 1 1 -0.4 37.566002 11.411 3.062 0 0 0
1303 1 1 -0.4 38.716999 9.058 2.849 0 0 0
1399 1 1 -0.4 35.757999 12.461 4.658 0 0 0
1759 1 1 -0.4 36.598 12.611 7.148 0 0 0
1915 1 1 -0.4 36.047001 14.804 5.81 0 0 0
1999 1 1 -0.4 34.105 13.199 6.567 0 0 0
2455 2 2 0.8 33.632999 10.532 1.971 0 0 0
2575 2 2 0.8 35.743999 8.811 5.71 0 0 0
2671 2 2 0.8 32.638 8.854 5.939 0 0 0
2743 2 2 0.8 38.731998 10.58 2.322 0 0 0
2839 2 2 0.8 36.094002 11.225 3.684 0 0 0
3151 2 2 0.8 35.625999 13.268 6.043 0 0 0
3247 2 2 0.8 32.515999 13.266 6.331 0 0 0
31 1 1 -0.4 0.035998999999996784 18.358 2.652 1 0 0
121 1 1 -0.4 2.26 18.271 3.953 0 0 0
217 1 1 -0.4 2.019 17.042 1.644 0 0 0
313 1 1 -0.4 2.065 19.671 1.743 0 0 0
409 1 1 -0.4 3.435 18.978001 6.206 0 0 0
508 1 1 -0.4 3.421 20.615999 4.146 0 0 0
601 1 1 -0.4 4.88 18.429001 4.082 0 0 0
676 1 1 -0.4 5.846 22.296 1.393 0 0 0
772 1 1 -0.4 4.086 20.636 0.361 0 0 0
793 1 1 -0.4 5.959 18.84 6.932 0 0 0
868 1 1 -0.4 5.898 19.757999 2.055 0 0 0
964 1 1 -0.4 2.16 22.235001 1.16 0 0 0
1177 1 1 -0.4 7.431 18.195999 3.509 0 0 0
1369 1 1 -0.4 5.623 17.146 1.913 0 0 0
1468 1 1 -0.4 0.179 22.604 2.85 0 0 0
1564 1 1 -0.4 2.65 23.072001 3.605 0 0 0
1708 1 1 -0.4 3.582 22.48 5.994 0 0 0
1804 1 1 -0.4 5.203 22.537001 3.929 0 0 0
1921 1 1 -0.4 3.97 16.408001 0.004 0 0 0
1948 1 1 -0.4 6.075 23.068001 6.575 0 0 0
2188 1 1 -0.4 7.68 22.955 3.162 0 0 0
2329 2 2 0.8 1.579 18.334999 2.494 0 0 0
2425 2 2 0.8 3.498 19.075001 4.6 0 0 0
2500 2 2 0.8 5.609 20.796 0.861 0 0 0
2521 2 2 0.8 4.436 18.68 7.432 0 0 0
2596 2 2 0.8 2.503 20.753 0.632 0 0 0
2617 2 2 0.8 7.542 18.723 7.203 0 0 0
2809 2 2 0.8 5.959 18.382 2.887 0 0 0
2908 2 2 0.8 1.617 23.145 2.372 0 0 0
3004 2 2 0.8 3.713 22.176001 4.417 0 0 0
3073 2 2 0.8 5.491 16.339001 0.528 0 0 0
3100 2 2 0.8 4.554 23.136999 7.099 0 0 0
3169 2 2 0.8 2.381 16.341 0.24 0 0 0
3196 2 2 0.8 7.664 23.135 6.811 0 0 0
3388 2 2 0.8 6.133 23.117001 2.749 0 0 0
13 1 1 -0.4 10.021 18.358 3.919 0 0 0
109 1 1 -0.4 12.305 18.271 2.618 0 0 0
205 1 1 -0.4 12.064 17.042 4.927 0 0 0
301 1 1 -0.4 12.11 19.671 4.828 0 0 0
397 1 1 -0.4 13.48 18.978001 0.365 0 0 0
496 1 1 -0.4 13.466 20.615999 2.425 0 0 0
589 1 1 -0.4 14.925 18.429001 2.489 0 0 0
712 1 1 -0.4 15.891 22.296 5.178 0 0 0
808 1 1 -0.4 14.131 20.636 6.21 0 0 0
904 1 1 -0.4 15.943 19.757999 4.516 0 0 0
1000 1 1 -0.4 12.205 22.235001 5.411 0 0 0
1081 1 1 -0.4 8.345 19.007999 5.839 0 0 0
1096 1 1 -0.4 11.745 20.468 7.303 0 0 0
1276 1 1 -0.4 8.582 20.549 3.722 0 0 0
1357 1 1 -0.4 15.668 17.146 4.658 0 0 0
1456 1 1 -0.4 10.224 22.604 3.721 0 0 0
1552 1 1 -0.4 12.695 23.072001 2.966 0 0 0
1696 1 1 -0.4 13.627 22.48 0.577 0 0 0
1792 1 1 -0.4 15.248 22.537001 2.642 0 0 0
1957 1 1 -0.4 14.015 16.408001 6.567 0 0 0
2092 1 1 -0.4 8.42 22.363001 5.618 0 0 0
2101 1 1 -0.4 11.67 17.113001 7.524 0 0 0
2317 2 2 0.8 11.624 18.334999 4.077 0 0 0
2413 2 2 0.8 13.543 19.075001 1.971 0 0 0
2536 2 2 0.8 15.654 20.796 5.71 0 0 0
2632 2 2 0.8 12.548 20.753 5.939 0 0 0
2713 2 2 0.8 8.597 19.027 4.249 0 0 0
2797 2 2 0.8 16.004 18.382 3.684 0 0 0
2896 2 2 0.8 11.662 23.145 4.199 0 0 0
2992 2 2 0.8 13.758 22.176001 2.154 0 0 0
3109 2 2 0.8 15.536 16.339001 6.043 0 0 0
3205 2 2 0.8 12.426 16.341 6.331 0 0 0
3292 2 2 0.8 8.725 22.118 4.057 0 0 0
25 1 1 -0.4 20.066 18.358 2.652 0 0 0
127 1 1 -0.4 22.35 18.271 3.953 0 0 0
223 1 1 -0.4 22.108999 17.042 1.644 0 0 0
319 1 1 -0.4 22.155001 19.671 1.743 0 0 0
415 1 1 -0.4 23.525 18.978001 6.206 0 0 0
424 1 1 -0.4 16.655001 20.497999 6.936 0 0 0
514 1 1 -0.4 23.511 20.615999 4.146 0 0 0
970 1 1 -0.4 22.25 22.235001 1.16 0 0 0
1069 1 1 -0.4 18.389999 19.007999 0.732 0 0 0
1165 1 1 -0.4 17.476 18.195999 3.062 0 0 0
1264 1 1 -0.4 18.627001 20.549 2.849 0 0 0
1474 1 1 -0.4 20.268999 22.604 2.85 0 0 0
1570 1 1 -0.4 22.74 23.072001 3.605 0 0 0
1714 1 1 -0.4 23.672001 22.48 5.994 0 0 0
1717 1 1 -0.4 16.507999 16.996 7.148 0 0 0
1927 1 1 -0.4 24.059999 16.408001 0.004 0 0 0
2080 1 1 -0.4 18.465 22.363001 0.953 0 0 0
2176 1 1 -0.4 17.725 22.955 3.409 0 0 0
2335 2 2 0.8 21.669001 18.334999 2.494 0 0 0
2431 2 2 0.8 23.587999 19.075001 4.6 0 0 0
2602 2 2 0.8 22.593 20.753 0.632 0 0 0
2701 2 2 0.8 18.642 19.027 2.322 0 0 0
2914 2 2 0.8 21.707001 23.145 2.372 0 0 0
3010 2 2 0.8 23.802999 22.176001 4.417 0 0 0
3175 2 2 0.8 22.471001 16.341 0.24 0 0 0
3280 2 2 0.8 18.77 22.118 2.514 0 0 0
3376 2 2 0.8 16.177999 23.117001 3.822 0 0 0
19 1 1 -0.4 30.111 18.358 3.919 0 0 0
607 1 1 -0.4 24.969999 18.429001 4.082 0 0 0
682 1 1 -0.4 25.936001 22.296 1.393 0 0 0
778 1 1 -0.4 24.176001 20.636 0.361 0 0 0
799 1 1 -0.4 26.049 18.84 6.932 0 0 0
874 1 1 -0.4 25.988001 19.757999 2.055 0 0 0
1087 1 1 -0.4 28.434999 19.007999 5.839 0 0 0
1102 1 1 -0.4 31.834999 20.468 7.303 0 0 0
1183 1 1 -0.4 27.521 18.195999 3.509 0 0 0
1282 1 1 -0.4 28.672001 20.549 3.722 0 0 0
1375 1 1 -0.4 25.712999 17.146 1.913 0 0 0
1462 1 1 -0.4 30.313999 22.604 3.721 0 0 0
1810 1 1 -0.4 25.292999 22.537001 3.929 0 0 0
1954 1 1 -0.4 26.165001 23.068001 6.575 0 0 0
2098 1 1 -0.4 28.51 22.363001 5.618 0 0 0
2107 1 1 -0.4 31.76 17.113001 7.524 0 0 0
2194 1 1 -0.4 27.77 22.955 3.162 0 0 0
2323 2 2 0.8 31.714001 18.334999 4.077 0 0 0
2506 2 2 0.8 25.698999 20.796 0.861 0 0 0
2527 2 2 0.8 24.525999 18.68 7.432 0 0 0
2623 2 2 0.8 27.632 18.723 7.203 0 0 0
2719 2 2 0.8 28.687 19.027 4.249 0 0 0
2815 2 2 0.8 26.049 18.382 2.887 0 0 0
2902 2 2 0.8 31.752001 23.145 4.199 0 0 0
3079 2 2 0.8 25.580999 16.339001 0.528 0 0 0
3106 2 2 0.8 24.643999 23.136999 7.099 0 0 0
3202 2 2 0.8 27.754 23.135 6.811 0 0 0
3298 2 2 0.8 28.815001 22.118 4.057 0 0 0
3394 2 2 0.8 26.223 23.117001 2.749 0 0 0
115 1 1 -0.4 32.395 18.271 2.618 0 0 0
211 1 1 -0.4 32.153999 17.042 4.927 0 0 0
307 1 1 -0.4 32.200001 19.671 4.828 0 0 0
403 1 1 -0.4 33.57 18.978001 0.365 0 0 0
430 1 1 -0.4 36.744999 20.497999 6.936 0 0 0
502 1 1 -0.4 33.556 20.615999 2.425 0 0 0
595 1 1 -0.4 35.014999 18.429001 2.489 0 0 0
718 1 1 -0.4 35.980999 22.296 5.178 0 0 0
814 1 1 -0.4 34.221001 20.636 6.21 0 0 0
910 1 1 -0.4 36.033001 19.757999 4.516 0 0 0
1006 1 1 -0.4 32.294998 22.235001 5.411 0 0 0
1075 1 1 -0.4 38.48 19.007999 0.732 0 0 0
1171 1 1 -0.4 37.566002 18.195999 3.062 0 0 0
1270 1 1 -0.4 38.716999 20.549 2.849 0 0 0
1363 1 1 -0.4 35.757999 17.146 4.658 0 0 0
1558 1 1 -0.4 32.785 23.072001 2.966 0 0 0
1702 1 1 -0.4 33.716999 22.48 0.577 0 0 0
1723 1 1 -0.4 36.598 16.996 7.148 0 0 0
1798 1 1 -0.4 35.338001 22.537001 2.642 0 0 0
1963 1 1 -0.4 34.105 16.408001 6.567 0 0 0
2086 1 1 -0.4 38.555 22.363001 0.953 0 0 0
2182 1 1 -0.4 37.814999 22.955 3.409 0 0 0
2419 2 2 0.8 33.632999 19.075001 1.971 0 0 0
2542 2 2 0.8 35.743999 20.796 5.71 0 0 0
2638 2 2 0.8 32.638 20.753 5.939 0 0 0
2707 2 2 0.8 38.731998 19.027 2.322 0 0 0
2803 2 2 0.8 36.094002 18.382 3.684 0 0 0
2998 2 2 0.8 33.848 22.176001 2.154 0 0 0
3115 2 2 0.8 35.625999 16.339001 6.043 0 0 0
3211 2 2 0.8 32.515999 16.341 6.331 0 0 0
3286 2 2 0.8 38.860001 22.118 2.514 0 0 0
3382 2 2 0.8 36.268002 23.117001 3.822 0 0 0
94 1 1 -0.4 0.035998999999996784 30.987 2.652 1 0 0
184 1 1 -0.4 2.26 31.073999 3.953 0 0 0
376 1 1 -0.4 2.065 29.674 1.743 0 0 0
472 1 1 -0.4 3.435 30.367001 6.206 0 0 0
568 1 1 -0.4 3.421 28.729 4.146 0 0 0
664 1 1 -0.4 4.88 30.916 4.082 0 0 0
736 1 1 -0.4 5.846 27.049 1.393 0 0 0
832 1 1 -0.4 4.086 28.709 0.361 0 0 0
856 1 1 -0.4 5.959 30.504999 6.932 0 0 0
928 1 1 -0.4 5.898 29.587 2.055 0 0 0
1024 1 1 -0.4 2.16 27.110001 1.16 0 0 0
1240 1 1 -0.4 7.431 31.149 3.509 0 0 0
1528 1 1 -0.4 0.179 26.740999 2.85 0 0 0
1624 1 1 -0.4 2.65 26.273001 3.605 0 0 0
1660 1 1 -0.4 1.481 24.673 1.881 0 0 0
1768 1 1 -0.4 3.582 26.865 5.994 0 0 0
1864 1 1 -0.4 5.203 26.808001 3.929 0 0 0
1900 1 1 -0.4 4.133 24.673 7.332 0 0 0
2008 1 1 -0.4 6.075 26.277 6.575 0 0 0
2248 1 1 -0.4 7.68 26.389999 3.162 0 0 0
2284 1 1 -0.4 5.794 24.673 2.514 0 0 0
2392 2 2 0.8 1.579 31.01 2.494 0 0 0
2488 2 2 0.8 3.498 30.27 4.6 0 0 0
2560 2 2 0.8 5.609 28.549 0.861 0 0 0
2584 2 2 0.8 4.436 30.665001 7.432 0 0 0
2656 2 2 0.8 2.503 28.591999 0.632 0 0 0
2680 2 2 0.8 7.542 30.622 7.203 0 0 0
2872 2 2 0.8 5.959 30.962999 2.887 0 0 0
2968 2 2 0.8 1.617 26.200001 2.372 0 0 0
3064 2 2 0.8 3.713 27.169001 4.417 0 0 0
3160 2 2 0.8 4.554 26.208 7.099 0 0 0
3256 2 2 0.8 7.664 26.209999 6.811 0 0 0
3448 2 2 0.8 6.133 26.228001 2.749 0 0 0
52 1 1 -0.4 10.021 30.987 3.919 0 0 0
148 1 1 -0.4 12.305 31.073999 2.618 0 0 0
340 1 1 -0.4 12.11 29.674 4.828 0 0 0
436 1 1 -0.4 13.48 30.367001 0.365 0 0 0
532 1 1 -0.4 13.466 28.729 2.425 0 0 0
628 1 1 -0.4 14.925 30.916 2.489 0 0 0
748 1 1 -0.4 15.891 27.049 5.178 0 0 0
844 1 1 -0.4 14.131 28.709 6.21 0 0 0
940 1 1 -0.4 15.943 29.587 4.516 0 0 0
1036 1 1 -0.4 12.205 27.110001 5.411 0 0 0
1132 1 1 -0.4 11.745 28.877001 7.303 0 0 0
1144 1 1 -0.4 8.345 30.337 5.839 0 0 0
1336 1 1 -0.4 8.582 28.796 3.722 0 0 0
1492 1 1 -0.4 10.224 26.740999 3.721 0 0 0
1588 1 1 -0.4 12.695 26.273001 2.966 0 0 0
1648 1 1 -0.4 11.526 24.673 4.69 0 0 0
1732 1 1 -0.4 13.627 26.865 0.577 0 0 0
1828 1 1 -0.4 15.248 26.808001 2.642 0 0 0
2044 1 1 -0.4 8.14 24.673 6.84 0 0 0
2152 1 1 -0.4 8.42 26.982 5.618 0 0 0
2272 1 1 -0.4 15.839 24.673 4.057 0 0 0
2356 2 2 0.8 11.624 31.01 4.077 0 0 0
2452 2 2 0.8 13.543 30.27 1.971 0 0 0
2572 2 2 0.8 15.654 28.549 5.71 0 0 0
2668 2 2 0.8 12.548 28.591999 5.939 0 0 0
2776 2 2 0.8 8.597 30.318001 4.249 0 0 0
2836 2 2 0.8 16.004 30.962999 3.684 0 0 0
2932 2 2 0.8 11.662 26.200001 4.199 0 0 0
3028 2 2 0.8 13.758 27.169001 2.154 0 0 0
3352 2 2 0.8 8.725 27.226999 4.057 0 0 0
3463 2307 3 -0.288 8.850292065836358 24.1878601037624 0.3519985173702125 0 0 1
88 1 1 -0.4 20.066 30.987 2.652 0 0 0
190 1 1 -0.4 22.35 31.073999 3.953 0 0 0
382 1 1 -0.4 22.155001 29.674 1.743 0 0 0
460 1 1 -0.4 16.655001 28.847 6.936 0 0 0
478 1 1 -0.4 23.525 30.367001 6.206 0 0 0
574 1 1 -0.4 23.511 28.729 4.146 0 0 0
1030 1 1 -0.4 22.25 27.110001 1.16 0 0 0
1108 1 1 -0.4 18.389999 30.337 0.732 0 0 0
1204 1 1 -0.4 17.476 31.149 3.062 0 0 0
1300 1 1 -0.4 18.627001 28.796 2.849 0 0 0
1534 1 1 -0.4 20.268999 26.740999 2.85 0 0 0
1630 1 1 -0.4 22.74 26.273001 3.605 0 0 0
1666 1 1 -0.4 21.570999 24.673 1.881 0 0 0
1774 1 1 -0.4 23.672001 26.865 5.994 0 0 0
2116 1 1 -0.4 18.465 26.982 0.953 0 0 0
2212 1 1 -0.4 17.725 26.389999 3.409 0 0 0
2398 2 2 0.8 21.669001 31.01 2.494 0 0 0
2494 2 2 0.8 23.587999 30.27 4.6 0 0 0
2662 2 2 0.8 22.593 28.591999 0.632 0 0 0
2740 2 2 0.8 18.642 30.318001 2.322 0 0 0
2974 2 2 0.8 21.707001 26.200001 2.372 0 0 0
3070 2 2 0.8 23.802999 27.169001 4.417 0 0 0
3316 2 2 0.8 18.77 27.226999 2.514 0 0 0
3412 2 2 0.8 16.177999 26.228001 3.822 0 0 0
3457 2305 3 -0.288 20.16014243704713 28.92977604152858 6.166946834814182 0 0 0
3458 2305 4 0.576 20.13822450769371 27.750510331472945 6.202330297898452 0 0 0
3459 2305 3 -0.288 20.11630657834029 26.57124462141731 6.237713760982722 0 0 0
58 1 1 -0.4 30.111 30.987 3.919 0 0 0
670 1 1 -0.4 24.969999 30.916 4.082 0 0 0
742 1 1 -0.4 25.936001 27.049 1.393 0 0 0
838 1 1 -0.4 24.176001 28.709 0.361 0 0 0
862 1 1 -0.4 26.049 30.504999 6.932 0 0 0
934 1 1 -0.4 25.988001 29.587 2.055 0 0 0
1138 1 1 -0.4 31.834999 28.877001 7.303 0 0 0
1150 1 1 -0.4 28.434999 30.337 5.839 0 0 0
1246 1 1 -0.4 27.521 31.149 3.509 0 0 0
1342 1 1 -0.4 28.672001 28.796 3.722 0 0 0
1498 1 1 -0.4 30.313999 26.740999 3.721 0 0 0
1654 1 1 -0.4 31.615999 24.673 4.69 0 0 0
1870 1 1 -0.4 25.292999 26.808001 3.929 0 0 0
1906 1 1 -0.4 24.223 24.673 7.332 0 0 0
2014 1 1 -0.4 26.165001 26.277 6.575 0 0 0
2050 1 1 -0.4 28.23 24.673 6.84 0 0 0
2158 1 1 -0.4 28.51 26.982 5.618 0 0 0
2254 1 1 -0.4 27.77 26.389999 3.162 0 0 0
2290 1 1 -0.4 25.884001 24.673 2.514 0 0 0
2362 2 2 0.8 31.714001 31.01 4.077 0 0 0
2566 2 2 0.8 25.698999 28.549 0.861 0 0 0
2590 2 2 0.8 24.525999 30.665001 7.432 0 0 0
2686 2 2 0.8 27.632 30.622 7.203 0 0 0
2782 2 2 0.8 28.687 30.318001 4.249 0 0 0
2878 2 2 0.8 26.049 30.962999 2.887 0 0 0
2938 2 2 0.8 31.752001 26.200001 4.199 0 0 0
3166 2 2 0.8 24.643999 26.208 7.099 0 0 0
3262 2 2 0.8 27.754 26.209999 6.811 0 0 0
3358 2 2 0.8 28.815001 27.226999 4.057 0 0 0
3454 2 2 0.8 26.223 26.228001 2.749 0 0 0
154 1 1 -0.4 32.395 31.073999 2.618 0 0 0
346 1 1 -0.4 32.200001 29.674 4.828 0 0 0
442 1 1 -0.4 33.57 30.367001 0.365 0 0 0
466 1 1 -0.4 36.744999 28.847 6.936 0 0 0
538 1 1 -0.4 33.556 28.729 2.425 0 0 0
634 1 1 -0.4 35.014999 30.916 2.489 0 0 0
754 1 1 -0.4 35.980999 27.049 5.178 0 0 0
850 1 1 -0.4 34.221001 28.709 6.21 0 0 0
946 1 1 -0.4 36.033001 29.587 4.516 0 0 0
1042 1 1 -0.4 32.294998 27.110001 5.411 0 0 0
1114 1 1 -0.4 38.48 30.337 0.732 0 0 0
1210 1 1 -0.4 37.566002 31.149 3.062 0 0 0
1306 1 1 -0.4 38.716999 28.796 2.849 0 0 0
1594 1 1 -0.4 32.785 26.273001 2.966 0 0 0
1738 1 1 -0.4 33.716999 26.865 0.577 0 0 0
1834 1 1 -0.4 35.338001 26.808001 2.642 0 0 0
2122 1 1 -0.4 38.555 26.982 0.953 0 0 0
2218 1 1 -0.4 37.814999 26.389999 3.409 0 0 0
2278 1 1 -0.4 35.929001 24.673 4.057 0 0 0
2458 2 2 0.8 33.632999 30.27 1.971 0 0 0
2578 2 2 0.8 35.743999 28.549 5.71 0 0 0
2674 2 2 0.8 32.638 28.591999 5.939 0 0 0
2746 2 2 0.8 38.731998 30.318001 2.322 0 0 0
2842 2 2 0.8 36.094002 30.962999 3.684 0 0 0
3034 2 2 0.8 33.848 27.169001 2.154 0 0 0
3322 2 2 0.8 38.860001 27.226999 2.514 0 0 0
3418 2 2 0.8 36.268002 26.228001 3.822 0 0 0
34 1 1 -0.4 0.035998999999996784 38.096001 2.652 1 0 0
124 1 1 -0.4 2.26 38.008999 3.953 0 0 0
220 1 1 -0.4 2.019 36.779999 1.644 0 0 0
280 1 1 -0.4 2.019 32.303001 1.644 0 0 0
316 1 1 -0.4 2.065 39.409 1.743 0 0 0
412 1 1 -0.4 3.435 38.716 6.206 0 0 0
604 1 1 -0.4 4.88 38.167 4.082 0 0 0
796 1 1 -0.4 5.959 38.577999 6.932 0 0 0
1180 1 1 -0.4 7.431 37.933998 3.509 0 0 0
1372 1 1 -0.4 5.623 36.883999 1.913 0 0 0
1432 1 1 -0.4 5.623 32.199001 1.913 0 0 0
1876 1 1 -0.4 5.912 34.542 0.761 0 0 0
1924 1 1 -0.4 3.97 36.146 0.004 0 0 0
1984 1 1 -0.4 3.97 32.937 0.004 0 0 0
2020 1 1 -0.4 1.905 34.542 0.269 0 0 0
2332 2 2 0.8 1.579 38.073002 2.494 0 0 0
2428 2 2 0.8 3.498 38.813 4.6 0 0 0
2524 2 2 0.8 4.436 38.417999 7.432 0 0 0
2620 2 2 0.8 7.542 38.460999 7.203 0 0 0
2812 2 2 0.8 5.959 38.119999 2.887 0 0 0
3076 2 2 0.8 5.491 36.077 0.528 0 0 0
3136 2 2 0.8 5.491 33.006001 0.528 0 0 0
3172 2 2 0.8 2.381 36.078999 0.24 0 0 0
3232 2 2 0.8 2.381 33.004002 0.24 0 0 0
16 1 1 -0.4 10.021 38.096001 3.919 0 0 0
112 1 1 -0.4 12.305 38.008999 2.618 0 0 0
208 1 1 -0.4 12.064 36.779999 4.927 0 0 0
244 1 1 -0.4 12.064 32.303001 4.927 0 0 0
304 1 1 -0.4 12.11 39.409 4.828 0 0 0
400 1 1 -0.4 13.48 38.716 0.365 0 0 0
592 1 1 -0.4 14.925 38.167 2.489 0 0 0
1084 1 1 -0.4 8.345 38.745998 5.839 0 0 0
1360 1 1 -0.4 15.668 36.883999 4.658 0 0 0
1396 1 1 -0.4 15.668 32.199001 4.658 0 0 0
1912 1 1 -0.4 15.957 34.542 5.81 0 0 0
1960 1 1 -0.4 14.015 36.146 6.567 0 0 0
1996 1 1 -0.4 14.015 32.937 6.567 0 0 0
2056 1 1 -0.4 11.95 34.542 6.302 0 0 0
2104 1 1 -0.4 11.67 36.851002 7.524 0 0 0
2140 1 1 -0.4 11.67 32.231998 7.524 0 0 0
2320 2 2 0.8 11.624 38.073002 4.077 0 0 0
2416 2 2 0.8 13.543 38.813 1.971 0 0 0
2716 2 2 0.8 8.597 38.764999 4.249 0 0 0
2800 2 2 0.8 16.004 38.119999 3.684 0 0 0
3112 2 2 0.8 15.536 36.077 6.043 0 0 0
3148 2 2 0.8 15.536 33.006001 6.043 0 0 0
3208 2 2 0.8 12.426 36.078999 6.331 0 0 0
3244 2 2 0.8 12.426 33.004002 6.331 0 0 0
28 1 1 -0.4 20.066 38.096001 2.652 0 0 0
130 1 1 -0.4 22.35 38.008999 3.953 0 0 0
226 1 1 -0.4 22.108999 36.779999 1.644 0 0 0
286 1 1 -0.4 22.108999 32.303001 1.644 0 0 0
322 1 1 -0.4 22.155001 39.409 1.743 0 0 0
418 1 1 -0.4 23.525 38.716 6.206 0 0 0
1072 1 1 -0.4 18.389999 38.745998 0.732 0 0 0
1168 1 1 -0.4 17.476 37.933998 3.062 0 0 0
1720 1 1 -0.4 16.507999 36.734001 7.148 0 0 0
1756 1 1 -0.4 16.507999 32.348999 7.148 0 0 0
1930 1 1 -0.4 24.059999 36.146 0.004 0 0 0
1990 1 1 -0.4 24.059999 32.937 0.004 0 0 0
2026 1 1 -0.4 21.995001 34.542 0.269 0 0 0
2338 2 2 0.8 21.669001 38.073002 2.494 0 0 0
2434 2 2 0.8 23.587999 38.813 4.6 0 0 0
2704 2 2 0.8 18.642 38.764999 2.322 0 0 0
3178 2 2 0.8 22.471001 36.078999 0.24 0 0 0
3238 2 2 0.8 22.471001 33.004002 0.24 0 0 0
3466 2308 3 -0.288 16.870700165673725 34.334194497819595 2.6160868501472336 0 0 0
3467 2308 4 0.576 17.448392945729456 34.89648517975374 1.754402313392906 0 0 0
3468 2308 3 -0.288 18.026085725785187 35.45877586168788 0.8927177766385788 0 0 0
22 1 1 -0.4 30.111 38.096001 3.919 0 0 0
610 1 1 -0.4 24.969999 38.167 4.082 0 0 0
802 1 1 -0.4 26.049 38.577999 6.932 0 0 0
1090 1 1 -0.4 28.434999 38.745998 5.839 0 0 0
1186 1 1 -0.4 27.521 37.933998 3.509 0 0 0
1378 1 1 -0.4 25.712999 36.883999 1.913 0 0 0
1438 1 1 -0.4 25.712999 32.199001 1.913 0 0 0
1882 1 1 -0.4 26.002001 34.542 0.761 0 0 0
2062 1 1 -0.4 32.040001 34.542 6.302 0 0 0
2110 1 1 -0.4 31.76 36.851002 7.524 0 0 0
2146 1 1 -0.4 31.76 32.231998 7.524 0 0 0
2326 2 2 0.8 31.714001 38.073002 4.077 0 0 0
2530 2 2 0.8 24.525999 38.417999 7.432 0 0 0
2626 2 2 0.8 27.632 38.460999 7.203 0 0 0
2722 2 2 0.8 28.687 38.764999 4.249 0 0 0
2818 2 2 0.8 26.049 38.119999 2.887 0 0 0
3082 2 2 0.8 25.580999 36.077 0.528 0 0 0
3142 2 2 0.8 25.580999 33.006001 0.528 0 0 0
118 1 1 -0.4 32.395 38.008999 2.618 0 0 0
214 1 1 -0.4 32.153999 36.779999 4.927 0 0 0
250 1 1 -0.4 32.153999 32.303001 4.927 0 0 0
310 1 1 -0.4 32.200001 39.409 4.828 0 0 0
406 1 1 -0.4 33.57 38.716 0.365 0 0 0
598 1 1 -0.4 35.014999 38.167 2.489 0 0 0
1078 1 1 -0.4 38.48 38.745998 0.732 0 0 0
1174 1 1 -0.4 37.566002 37.933998 3.062 0 0 0
1366 1 1 -0.4 35.757999 36.883999 4.658 0 0 0
1402 1 1 -0.4 35.757999 32.199001 4.658 0 0 0
1726 1 1 -0.4 36.598 36.734001 7.148 0 0 0
1762 1 1 -0.4 36.598 32.348999 7.148 0 0 0
1918 1 1 -0.4 36.047001 34.542 5.81 0 0 0
1966 1 1 -0.4 34.105 36.146 6.567 0 0 0
2002 1 1 -0.4 34.105 32.937 6.567 0 0 0
2422 2 2 0.8 33.632999 38.813 1.971 0 0 0
2710 2 2 0.8 38.731998 38.764999 2.322 0 0 0
2806 2 2 0.8 36.094002 38.119999 3.684 0 0 0
3118 2 2 0.8 35.625999 36.077 6.043 0 0 0
3154 2 2 0.8 35.625999 33.006001 6.043 0 0 0
3214 2 2 0.8 32.515999 36.078999 6.331 0 0 0
3250 2 2 0.8 32.515999 33.004002 6.331 0 0 0
97 1 1 -0.4 7.785 1.467 10.524 0 0 0
193 1 1 -0.4 8.026 2.696 8.215 0 0 0
253 1 1 -0.4 8.026 7.173 8.215 0 0 0
289 1 1 -0.4 7.98 0.067 8.314 0 0 0
385 1 1 -0.4 6.61 0.76 12.777 0 0 0
577 1 1 -0.4 5.165 1.309 10.653 0 0 0
674 1 1 -0.4 5.846 2.558 14.535 0 0 0
734 1 1 -0.4 5.846 7.311 14.535 0 0 0
770 1 1 -0.4 4.086 0.898 13.503 0 0 0
866 1 1 -0.4 5.898 0.02 15.197 0 0 0
962 1 1 -0.4 2.16 2.497 14.302 0 0 0
1022 1 1 -0.4 2.16 7.372 14.302 0 0 0
1057 1 1 -0.4 1.7 0.73 12.41 0 0 0
1153 1 1 -0.4 2.614 1.542 10.08 0 0 0
1345 1 1 -0.4 4.422 2.592 8.484 0 0 0
1405 1 1 -0.4 4.422 7.277 8.484 0 0 0
1658 1 1 -0.4 1.481 4.935 15.023 0 0 0
2282 1 1 -0.4 5.794 4.935 15.656 0 0 0
2401 2 2 0.8 6.547 0.663 11.171 0 0 0
2498 2 2 0.8 5.609 1.058 14.003 0 0 0
2594 2 2 0.8 2.503 1.015 13.774 0 0 0
2689 2 2 0.8 1.448 0.711 10.82 0 0 0
2785 2 2 0.8 4.086 1.356 9.458 0 0 0
2906 2 2 0.8 1.617 3.407 15.514 0 0 0
2966 2 2 0.8 1.617 6.462 15.514 0 0 0
1 1 1 -0.4 10.069 1.38 9.223 0 0 0
494 1 1 -0.4 13.466 0.878 15.567 0 0 0
613 1 1 -0.4 15.21 1.309 9.06 0 0 0
1189 1 1 -0.4 12.659 1.542 9.633 0 0 0
1381 1 1 -0.4 14.467 2.592 11.229 0 0 0
1417 1 1 -0.4 14.467 7.277 11.229 0 0 0
1694 1 1 -0.4 13.627 2.742 13.719 0 0 0
1730 1 1 -0.4 13.627 7.127 13.719 0 0 0
1885 1 1 -0.4 14.178 4.935 12.381 0 0 0
2305 2 2 0.8 8.466 1.403 9.065 0 0 0
2725 2 2 0.8 11.493 0.711 8.893 0 0 0
2821 2 2 0.8 14.131 1.356 10.255 0 0 0
2990 2 2 0.8 13.758 2.438 15.296 0 0 0
3026 2 2 0.8 13.758 7.431 15.296 0 0 0
3085 2 2 0.8 14.599 3.399 12.614 0 0 0
3121 2 2 0.8 14.599 6.47 12.614 0 0 0
43 1 1 -0.4 20.114 1.38 10.49 0 0 0
133 1 1 -0.4 17.83 1.467 9.189 0 0 0
229 1 1 -0.4 18.070999 2.696 11.498 0 0 0
265 1 1 -0.4 18.070999 7.173 11.498 0 0 0
325 1 1 -0.4 18.025 0.067 11.399 0 0 0
968 1 1 -0.4 22.25 2.497 14.302 0 0 0
1028 1 1 -0.4 22.25 7.372 14.302 0 0 0
1063 1 1 -0.4 21.790001 0.73 12.41 0 0 0
1159 1 1 -0.4 22.704 1.542 10.08 0 0 0