LAMMPS (27 Jun 2024)
  using 8 OpenMP thread(s) per MPI task
package omp 0
using multi-threaded neighbor list subroutines
# LAMMPS input script by Simon Gravelle
# For LAMMPS tutorials, see https://lammpstutorials.github.io
# Last tested using the 27Jun2024 LAMMPS version

variable Nstep equal 2500000
variable mu_K equal -4200
variable mu_kcal_mol equal ${mu_K}*0.0019872041
variable mu_kcal_mol equal -4200*0.0019872041
print "mu equal ${mu_kcal_mol}"
mu equal -8.34625722
variable tfac equal 5.0/3.0
variable Nattempt equal 10

units real
boundary p p p
atom_style full
pair_style lj/cut/coul/long 12
kspace_style ewald 1.0e-5
bond_style harmonic
angle_style harmonic
pair_modify mix geometric
special_bonds lj 0.0 0.0 0.0 coul 0.0 0.0 0.0 angle yes

read_data box.data
Reading data file ...
  orthogonal box = (-25 -25 -25) to (25 25 25)
  1 by 1 by 1 MPI processor grid
  reading atom labelmap ...
  reading bond labelmap ...
  reading angle labelmap ...
  reading atoms ...
  150 atoms
  reading velocities ...
  150 velocities
  scanning bonds ...
  1 = max bonds/atom
  scanning angles ...
  1 = max angles/atom
  orthogonal box = (-25 -25 -25) to (25 25 25)
  1 by 1 by 1 MPI processor grid
  reading bonds ...
  100 bonds
  reading angles ...
  50 angles
Finding 1-2 1-3 1-4 neighbors ...
  special bond factors lj:    0        0        0       
  special bond factors coul:  0        0        0       
     2 = max # of 1-2 neighbors
     1 = max # of 1-3 neighbors
     1 = max # of 1-4 neighbors
  100 = # of 1-3 neighbors before angle trim
  100 = # of 1-3 neighbors after angle trim
     2 = max # of special neighbors
  special bonds CPU = 0.000 seconds
  read_data CPU = 0.013 seconds
labelmap atom 1 O 2 C
labelmap bond 1 C-O
labelmap angle 1 O-C-O

group CO2 type C O
150 atoms in group CO2
include parm.lmp
# LAMMPS parameter file for H2O SPCE water model
# For conversion from K to kcal / mol, multiply
# by Boltzmann = 0.0019872041 kcal / (mol * K)

mass O 15.9994
mass C 12.0110

pair_coeff O O 0.164858 3.011
pair_coeff C C 0.05894 2.789

bond_coeff C-O 0.0 1.18 # rigid

angle_coeff O-C-O 0.0 180.0 # rigid

molecule CO2mol CO2.mol
Read molecule template CO2mol:
# LAMMPS molecule file for carbondioxide
  1 molecules
  0 fragments
  3 atoms with max type 2
  2 bonds with max type 1
  1 angles with max type 1
  0 dihedrals with max type 0
  0 impropers with max type 0

fix mynvt CO2 rigid/nvt/small molecule temp 300 300 100 mol CO2mol
  create bodies CPU = 0.000 seconds
  50 rigid bodies with 150 atoms
  1.18 = max distance from body owner to body atom
thermo 1000

run 2000

CITE-CITE-CITE-CITE-CITE-CITE-CITE-CITE-CITE-CITE-CITE-CITE-CITE

Your simulation uses code contributions which should be cited:

- Type Label Framework: https://doi.org/10.1021/acs.jpcb.3c08419

@Article{Gissinger24,
 author = {Jacob R. Gissinger, Ilia Nikiforov, Yaser Afshar, Brendon Waters, Moon-ki Choi, Daniel S. Karls, Alexander Stukowski, Wonpil Im, Hendrik Heinz, Axel Kohlmeyer, and Ellad B. Tadmor},
 title = {Type Label Framework for Bonded Force Fields in LAMMPS},
 journal = {J. Phys. Chem. B},
 year =    2024,
 volume =  128,
 number =  13,
 pages =   {3282–-3297}
}

CITE-CITE-CITE-CITE-CITE-CITE-CITE-CITE-CITE-CITE-CITE-CITE-CITE

Ewald initialization ...
  using 12-bit tables for long-range coulomb (src/kspace.cpp:342)
  G vector (1/distance) = 0.20077039
  estimated absolute RMS force accuracy = 0.0039018044
  estimated relative force accuracy = 1.1750168e-05
  KSpace vectors: actual max1d max3d = 1054 8 2456
                  kxmax kymax kzmax  = 8 8 8
Generated 1 of 1 mixed pair_coeff terms from geometric mixing rule
Last active /omp style is kspace_style ewald/omp
Neighbor list info ...
  update: every = 1 steps, delay = 0 steps, check = yes
  max neighbors/atom: 2000, page size: 100000
  master list distance cutoff = 14
  ghost atom cutoff = 14
  binsize = 7, bins = 8 8 8
  1 neighbor lists, perpetual/occasional/extra = 1 0 0
  (1) pair lj/cut/coul/long/omp, perpetual
      attributes: half, newton on, omp
      pair build: half/bin/newton/omp
      stencil: half/bin/3d
      bin: standard
Per MPI rank memory allocation (min/avg/max) = 31.23 | 31.23 | 31.23 Mbytes
   Step          Temp          E_pair         E_mol          TotEng         Press     
         0   0             -1.3802283      0             -1.3802283     -1.9091073    
      1000   244.97829     -2.8147982      0              57.307781      2.9372644    
      2000   217.84894     -2.3855577      0              51.078935      19.431984    
Loop time of 0.622341 on 8 procs for 2000 steps with 150 atoms

Performance: 277.661 ns/day, 0.086 hours/ns, 3213.672 timesteps/s, 482.051 katom-step/s
801.7% CPU use with 1 MPI tasks x 8 OpenMP threads

MPI task timing breakdown:
Section |  min time  |  avg time  |  max time  |%varavg| %total
---------------------------------------------------------------
Pair    | 0.010339   | 0.010339   | 0.010339   |   0.0 |  1.66
Bond    | 0.0096551  | 0.0096551  | 0.0096551  |   0.0 |  1.55
Kspace  | 0.52371    | 0.52371    | 0.52371    |   0.0 | 84.15
Neigh   | 0.00080235 | 0.00080235 | 0.00080235 |   0.0 |  0.13
Comm    | 0.005459   | 0.005459   | 0.005459   |   0.0 |  0.88
Output  | 2.7797e-05 | 2.7797e-05 | 2.7797e-05 |   0.0 |  0.00
Modify  | 0.071125   | 0.071125   | 0.071125   |   0.0 | 11.43
Other   |            | 0.001228   |            |       |  0.20

Nlocal:            150 ave         150 max         150 min
Histogram: 1 0 0 0 0 0 0 0 0 0
Nghost:            444 ave         444 max         444 min
Histogram: 1 0 0 0 0 0 0 0 0 0
Neighs:           1106 ave        1106 max        1106 min
Histogram: 1 0 0 0 0 0 0 0 0 0

Total # of neighbors = 1106
Ave neighs/atom = 7.3733333
Ave special neighs/atom = 2
Neighbor list builds = 27
Dangerous builds = 0

fix fgcmc CO2 gcmc 100 ${Nattempt} 0 0 25899 300 ${mu_kcal_mol} 0.1     mol CO2mol tfac_insert ${tfac} full_energy rigid mynvt
fix fgcmc CO2 gcmc 100 10 0 0 25899 300 ${mu_kcal_mol} 0.1     mol CO2mol tfac_insert ${tfac} full_energy rigid mynvt
fix fgcmc CO2 gcmc 100 10 0 0 25899 300 -8.34625722 0.1     mol CO2mol tfac_insert ${tfac} full_energy rigid mynvt
fix fgcmc CO2 gcmc 100 10 0 0 25899 300 -8.34625722 0.1     mol CO2mol tfac_insert 1.66666666666667 full_energy rigid mynvt

variable carbon atom "type==2"
group carbon dynamic all var carbon
dynamic group carbon defined
variable nC equal count(carbon)
fix myat1 all ave/time 10 10 1000 v_nC file number_CO2.dat
variable density equal v_nC*(2*15.9994+12.011)/vol/6.022e23*(1e8)^3
fix myat2 all ave/time 10 10 1000 v_density file density_CO2.dat
compute press all pressure thermo_temp
fix myat3 all ave/time 10 100 1000 c_press file pressure_CO2.dat
thermo_style custom step temp etotal v_nC

run ${Nstep}
run 2500000
Ewald initialization ...
  using 12-bit tables for long-range coulomb (src/kspace.cpp:342)
  G vector (1/distance) = 0.20077039
  estimated absolute RMS force accuracy = 0.0039018044
  estimated relative force accuracy = 1.1750168e-05
  KSpace vectors: actual max1d max3d = 1054 8 2456
                  kxmax kymax kzmax  = 8 8 8
Generated 1 of 1 mixed pair_coeff terms from geometric mixing rule
Last active /omp style is kspace_style ewald/omp
0 atoms in group FixGCMC:gcmc_exclusion_group:fgcmc
0 atoms in group FixGCMC:rotation_gas_atoms:fgcmc
WARNING: Neighbor exclusions used with KSpace solver may give inconsistent Coulombic energies (src/neighbor.cpp:658)
Per MPI rank memory allocation (min/avg/max) = 31.23 | 31.23 | 31.23 Mbytes
   Step          Temp          TotEng          v_nC     
      2000   217.84894      51.078935      50           
      3000   270.97395      65.584304      32           
      4000   269.10487      63.32716       40           
      5000   252.73841      60.350012      29           
      6000   284.31476      67.896113      31           
      7000   301.89055      71.946258      31           
      8000   286.89896      68.411741      26           
      9000   245.51506      58.123854      36           
     10000   299.71103      73.33286       32           
     11000   283.51989      67.645071      28           
     12000   283.11932      65.269178      40           
     13000   204.47254      49.347635      30           
     14000   350.49932      85.877763      25           
     15000   190.68769      44.992058      30           
     16000   272.70968      65.886168      35           
     17000   374.0822       90.786589      35           
     18000   290.18168      68.120498      40           
     19000   308.95667      73.658035      34           
     20000   252.138        60.647304      25           
     21000   308.22777      73.2003        36           
     22000   237.04176      56.003095      31           
     23000   302.89985      70.361972      38           
     24000   229.92274      55.741541      30           
     25000   315.05898      76.261604      23           
     26000   266.8479       64.381535      30           
     27000   282.46967      66.337449      30           
     28000   239.84167      57.888862      30           
     29000   320.49334      75.902849      32           
     30000   274.76135      64.381152      34           
     31000   280.49459      68.019835      28           
     32000   231.41071      54.684056      34           
     33000   258.01123      61.430375      25           
     34000   327.49794      78.164782      35           
     35000   328.04281      77.125546      40           
     36000   362.62173      85.485111      32           
     37000   259.09981      62.669642      22           
     38000   223.84522      53.413782      33           
     39000   333.53131      81.395182      25           
     40000   226.75222      54.360027      35           
     41000   226.93933      53.832282      31           
     42000   287.57767      69.003169      29           
     43000   235.18168      54.531319      35           
     44000   293.1885       68.84846       30           
     45000   257.99596      61.689547      25           
     46000   207.88116      50.284045      31           
     47000   299.59279      70.197117      39           
     48000   338.53978      80.644544      37           
     49000   233.92999      56.011938      29           
     50000   213.94695      50.910737      27           
     51000   226.25336      54.868305      28           
     52000   256.73464      62.733385      21           
     53000   222.29769      52.626647      29           
     54000   266.96513      64.615576      31           
     55000   269.69721      65.526694      35           
     56000   219.70727      53.090665      27           
     57000   214.37919      52.072686      30           
     58000   332.53057      79.814971      28           
     59000   304.43521      72.515773      34           
     60000   287.09237      69.404947      31           
     61000   271.10565      63.471928      36           
     62000   238.6637       58.028344      26           
     63000   195.66802      46.371632      24           
     64000   282.4119       67.677675      28           
     65000   227.39957      54.13205       24           
     66000   312.40116      76.385601      26           
     67000   216.95209      52.19093       27           
     68000   327.6083       79.519767      23           
     69000   266.46086      65.300909      26           
     70000   292.32593      68.50322       38           
     71000   266.68771      63.173799      30           
     72000   318.18729      76.174036      33           
     73000   306.24862      70.538854      34           
     74000   345.52086      83.924346      24           
     75000   290.25743      67.018229      38           
     76000   284.89824      67.299559      35           
     77000   273.69631      64.457388      35           
     78000   308.56227      70.571587      37           
     79000   286.5286       68.608732      31           
     80000   284.35582      68.43399       36           
     81000   289.9481       68.895863      36           
     82000   168.31709      37.257098      40           
     83000   291.18547      70.442761      26           
     84000   202.11263      48.87405       28           
     85000   293.18679      68.231068      36           
     86000   298.05621      68.915187      44           
     87000   213.25395      51.666259      30           
     88000   236.35159      54.972106      41           
     89000   276.76954      66.750185      29           
     90000   171.03403      41.482403      21           
     91000   303.47018      72.66554       32           
     92000   302.61904      73.644743      27           
     93000   227.84729      54.592427      34           
     94000   224.17405      53.661308      33           
     95000   192.01688      42.837238      41           
     96000   265.76939      63.365776      32           
     97000   224.96767      54.668847      24           
     98000   279.05651      66.153158      38           
     99000   286.87413      67.418227      39           
    100000   331.48438      78.781445      35           
    101000   271.59598      63.82316       34           
    102000   218.49396      51.983219      33           
    103000   245.10964      58.115658      22           
    104000   263.1526       62.898948      28           
    105000   304.02678      73.091311      32           
    106000   265.09376      62.169729      43           
    107000   262.33645      62.676112      39           
    108000   256.48431      62.758481      26           
    109000   298.91692      70.803827      34           
    110000   272.91716      62.807577      39           
    111000   329.43244      80.294144      26           
    112000   291.29692      70.986062      19           
    113000   243.42426      59.291183      29           
    114000   208.05379      50.693555      26           
    115000   191.10179      46.587209      29           
    116000   277.47617      67.043101      34           
    117000   306.03007      73.975918      23           
    118000   227.98177      54.928173      27           
    119000   310.54543      73.328758      25           
    120000   252.87228      60.028262      32           
    121000   196.87271      46.900842      29           
    122000   207.92282      50.383797      33           
    123000   300.28106      72.409335      31           
    124000   273.57776      66.06647       25           
    125000   288.66776      67.350098      36           
    126000   267.44035      63.97538       31           
    127000   203.76856      47.949188      34           
    128000   348.00127      82.491687      33           
    129000   238.88463      52.868648      43           
    130000   293.27117      70.286902      36           
    131000   259.30875      62.558675      27           
    132000   317.07276      77.376216      32           
    133000   307.84703      72.499548      40           
    134000   311.97153      74.835614      38           
    135000   279.00621      64.793789      38           
    136000   317.70352      75.945559      32           
    137000   329.05451      75.977998      34           
    138000   275.15651      67.070494      36           
    139000   311.51118      74.637168      30           
    140000   315.03187      76.841011      33           
    141000   295.95451      71.532585      24           
    142000   298.06604      71.187697      27           
    143000   348.41411      82.806302      35           
    144000   191.24984      44.987716      39           
    145000   190.91624      45.298537      26           
    146000   319.63984      75.171532      35           
    147000   284.4296       67.534696      36           
    148000   321.58098      77.201867      38           
    149000   206.12631      48.344908      34           
    150000   292.90001      66.834555      38           
    151000   249.95936      57.339116      36           
    152000   259.47376      62.349735      33           
    153000   255.41306      53.594325      47           
    154000   264.17228      64.893666      36           
    155000   315.71673      75.433661      40           
    156000   308.03873      71.889657      38           
    157000   264.35736      60.394355      40           
    158000   280.77223      66.745409      40           
    159000   216.41744      51.341607      34           
    160000   303.97143      73.654494      28           
    161000   327.87067      80.118717      20           
    162000   253.42803      60.033377      29           
    163000   233.15923      57.001846      26           
    164000   234.85344      56.109241      35           
    165000   267.60407      63.701518      36           
    166000   331.81157      79.496921      30           
    167000   302.4562       69.94523       40           
    168000   306.57343      70.42815       39           
    169000   333.18279      76.071166      49           
    170000   313.46365      71.034785      37           
    171000   314.20609      73.834857      31           
    172000   298.55083      70.335484      34           
    173000   278.83518      67.932688      23           
    174000   218.46277      50.173244      26           
    175000   288.20974      67.655528      32           
    176000   330.14027      76.673802      34           
    177000   268.95392      63.500011      32           
    178000   275.94422      66.294961      31           
    179000   304.36994      73.275113      32           
    180000   323.91878      75.406215      42           
    181000   289.17009      66.263663      37           
    182000   259.16226      62.454997      25           
    183000   272.03574      67.158943      36           
    184000   301.01699      71.007359      34           
    185000   284.51908      68.844649      29           
    186000   260.81936      62.828927      28           
    187000   218.03789      51.781335      31           
    188000   310.1371       73.863552      30           
    189000   287.819        69.838191      25           
    190000   348.06541      83.177141      35           
    191000   223.02152      53.875737      33           
    192000   282.07232      66.317422      40           
    193000   285.33047      66.709274      44           
    194000   266.31408      62.303231      32           
    195000   260.06991      63.72822       23           
    196000   231.16514      55.354955      28           
    197000   305.6119       73.57523       31           
    198000   205.79918      48.48146       24           
    199000   295.48169      70.742519      40           
    200000   271.48855      62.781213      39           
    201000   298.104        71.258549      33           
    202000   308.73178      73.908231      31           
    203000   266.50753      63.871809      34           
    204000   226.3317       54.556331      25           
    205000   336.94216      82.282928      30           
    206000   313.65398      75.728443      37           
    207000   256.67238      61.160601      36           
    208000   295.06638      69.347749      34           
    209000   243.52249      56.489496      30           
    210000   314.75857      76.301043      25           
    211000   283.99613      65.677057      38           
    212000   210.45733      49.870954      35           
    213000   331.92197      80.243562      26           
    214000   317.35032      76.204152      32           
    215000   347.77159      83.883162      35           
    216000   218.12137      53.32301       19           
    217000   192.07923      46.643819      23           
    218000   220.82777      52.936788      32           
    219000   261.552        64.674411      40           
    220000   310.92392      72.571965      39           
    221000   304.71669      69.711216      39           
    222000   305.54808      73.287135      27           
    223000   279.35118      68.206067      25           
    224000   322.44964      78.348376      24           
    225000   305.38515      71.53378       36           
    226000   282.75371      68.819727      31           
    227000   285.93302      68.526983      31           
    228000   248.16006      58.638667      36           
    229000   253.48693      60.321858      38           
    230000   315.21594      72.641258      34           
    231000   311.46695      74.591724      34           
    232000   230.24525      55.390376      24           
    233000   284.06676      68.414352      29           
    234000   236.57138      56.766993      36           
    235000   307.55542      73.232113      25           
    236000   363.74181      88.053471      25           
    237000   308.73763      74.681826      28           
    238000   174.67051      40.420886      39           
    239000   244.78302      57.97741       33           
    240000   265.10642      62.959466      41           
    241000   208.40947      49.130284      31           
    242000   260.24358      60.973776      29           
    243000   235.49977      56.673736      22           
    244000   227.45124      55.682527      20           
    245000   212.58841      51.365903      27           
    246000   248.41688      59.490907      32           
    247000   313.23094      73.935381      41           
    248000   331.46041      79.688149      36           
    249000   259.26263      61.655166      34           
    250000   286.72004      65.77023       40           
    251000   306.18652      71.794659      36           
    252000   258.52584      62.914585      27           
    253000   258.57221      62.54934       28           
    254000   246.75771      58.461487      33           
    255000   314.58428      76.478525      27           
    256000   165.37372      40.162031      24           
    257000   273.60944      64.554777      30           
    258000   325.00381      78.979649      22           
    259000   240.29043      57.598161      39           
    260000   321.40889      77.239573      31           
    261000   321.86255      76.812523      33           
    262000   217.20467      52.571655      29           
    263000   309.79659      73.434328      33           
    264000   268.04353      64.676531      31           
    265000   209.91858      50.5778        25           
    266000   338.11583      82.495794      29           
    267000   268.63563      64.461766      33           
    268000   231.70521      53.971723      37           
    269000   302.92244      70.935518      28           
    270000   266.49987      63.841415      38           
    271000   298.92867      71.967031      26           
    272000   385.75673      93.21664       29           
    273000   311.67055      73.064867      37           
    274000   275.45259      65.967213      28           
    275000   318.96247      74.474071      42           
    276000   302.54791      70.778142      39           
    277000   301.47808      70.879244      37           
    278000   327.19827      77.735635      43           
    279000   294.39121      70.732576      29           
    280000   274.42459      66.420855      29           
    281000   241.54874      58.454805      28           
    282000   262.7555       63.436512      29           
    283000   306.15231      72.630201      30           
    284000   185.44516      44.773278      25           
    285000   363.03311      87.285331      26           
    286000   262.89209      61.665731      41           
    287000   253.19252      60.875244      33           
    288000   330.36415      79.745961      41           
    289000   246.37472      55.561074      32           
    290000   344.19247      80.017819      37           
    291000   262.2176       60.770033      41           
    292000   289.82904      70.341557      33           
    293000   323.37059      77.042625      34           
    294000   237.3025       54.939162      41           
    295000   210.27625      46.787477      39           
    296000   288.57605      70.145348      35           
    297000   252.35599      58.796474      31           
    298000   319.4636       77.781225      37           
    299000   313.03593      75.37864       28           
    300000   239.44762      54.523202      40           
    301000   301.17922      70.242981      38           
    302000   269.24127      64.711021      28           
    303000   238.26741      57.90699       33           
    304000   195.06934      46.352317      32           
    305000   282.09329      67.43449       30           
    306000   347.91042      82.881072      38           
    307000   262.31936      63.267266      28           
    308000   305.81809      73.019578      29           
    309000   323.59235      79.066692      22           
    310000   324.79253      77.56362       30           
    311000   192.21853      45.673889      30           
    312000   313.70672      76.569312      17           
    313000   282.18695      68.416134      25           
    314000   187.71156      45.602557      29           
    315000   288.13984      69.384861      32           
    316000   316.48313      75.533826      29           
    317000   303.03306      72.451137      37           
    318000   286.79831      69.020832      34           
    319000   330.05347      78.423899      40           
    320000   342.2539       77.907241      45           
    321000   287.12988      67.947847      32           
    322000   293.88387      69.867896      31           
    323000   310.66103      74.36208       24           
    324000   303.42956      71.692165      37           
    325000   269.08078      63.450984      34           
    326000   231.15349      53.206906      42           
    327000   330.96309      76.757728      30           
    328000   196.72907      44.399659      36           
    329000   313.38792      74.539953      38           
    330000   358.87328      85.20617       36           
    331000   290.19384      70.539927      26           
    332000   311.1631       73.499512      35           
    333000   257.85214      60.643528      41           
    334000   287.42059      68.522886      31           
    335000   339.96371      82.021679      25           
    336000   187.38049      45.176732      21           
    337000   306.18731      73.736052      33           
    338000   325.43343      77.69144       30           
    339000   310.0241       73.519256      36           
    340000   222.14212      54.366976      26           
    341000   211.38317      51.741381      17           
    342000   356.86952      86.438418      24           
    343000   247.13754      55.398843      37           
    344000   304.72961      72.559456      32           
    345000   262.92134      63.037587      26           
    346000   318.23442      78.34276       31           
    347000   258.88625      61.676762      41           
    348000   304.3404       72.048959      32           
    349000   285.42932      69.198785      31           
    350000   300.12882      71.63357       31           
    351000   238.92096      55.976595      30           
    352000   281.67519      67.642338      29           
    353000   206.93394      49.619198      30           
    354000   313.89855      75.059121      39           
    355000   265.84971      62.623454      40           
    356000   333.65976      78.242994      37           
    357000   266.45867      64.710884      30           
    358000   168.59879      41.069409      22           
    359000   299.73994      71.459821      29           
    360000   313.39047      73.333962      37           
    361000   307.2269       72.830535      36           
    362000   270.64554      62.638548      38           
    363000   287.08083      64.867396      47           
    364000   270.28987      60.439662      47           
    365000   296.74978      66.983241      49           
    366000   255.00343      55.660807      44           
    367000   225.1814       53.407937      29           
    368000   277.16193      66.281655      27           
    369000   182.21104      44.442559      25           
    370000   273.39822      65.985555      23           
    371000   306.82772      73.261057      34           
    372000   229.59633      55.613254      25           
    373000   213.19962      50.579825      29           
    374000   321.12321      78.123643      28           
    375000   168.62178      39.751523      22           
    376000   287.10412      69.58825       19           
    377000   267.78405      64.299477      28           
    378000   346.52879      83.561945      27           
    379000   282.35337      67.073112      30           
    380000   308.33067      73.524254      28           
    381000   244.11017      56.482183      25           
    382000   279.64537      64.175127      37           
    383000   334.34573      79.96046       33           
    384000   242.90198      55.652885      33           
    385000   241.73699      58.909521      28           
    386000   212.38937      50.453017      24           
    387000   254.19558      62.250953      20           
    388000   255.7555       62.566356      28           
    389000   194.33787      46.099851      30           
    390000   289.47677      70.226773      34           
    391000   241.78315      57.936022      34           
    392000   195.13626      42.973126      35           
    393000   275.86096      61.366576      48           
    394000   320.05497      76.910179      36           
    395000   247.08845      59.35828       35           
    396000   201.08106      46.492694      37           
    397000   321.8668       75.860413      35           
    398000   310.90881      71.563098      35           
    399000   290.42415      69.848216      33           
    400000   321.72183      75.915884      35           
    401000   311.60891      75.79077       32           
    402000   264.39275      63.457409      30           
    403000   289.60521      70.852709      22           
    404000   280.52442      66.639734      29           
    405000   222.82525      53.22543       35           
    406000   288.70512      69.693996      32           
    407000   300.17603      71.923973      35           
    408000   262.01351      62.741296      33           
    409000   337.70271      78.181273      39           
    410000   305.27956      74.121479      28           
    411000   310.38695      74.534755      36           
    412000   184.3029       42.273275      31           
    413000   308.92681      72.000663      38           
    414000   208.51492      48.104823      29           
    415000   217.50044      49.574904      30           
    416000   292.75378      68.876604      36           
    417000   217.10515      51.64386       27           
    418000   215.34458      51.757086      29           
    419000   298.09033      71.425265      35           
    420000   244.98864      57.71644       39           
    421000   250.81067      58.664676      36           
    422000   300.44861      73.207077      27           
    423000   198.80363      47.115992      29           
    424000   291.20919      69.878021      40           
    425000   289.09299      68.563519      31           
    426000   282.46897      66.996606      37           
    427000   308.76852      73.06717       39           
    428000   298.67875      69.735003      39           
    429000   237.01083      54.423211      40           
    430000   314.46629      74.246188      34           
    431000   266.37818      63.17996       26           
    432000   284.41456      69.176822      34           
    433000   261.58134      62.921445      30           
    434000   198.76059      47.173711      31           
    435000   160.64174      36.549703      42           
    436000   310.18555      75.406049      32           
    437000   291.33122      69.216931      42           
    438000   317.6144       74.872655      37           
    439000   311.92387      71.908769      45           
    440000   359.44681      86.740794      33           
    441000   300.70373      72.682917      37           
    442000   188.69638      42.246204      45           
    443000   253.29839      59.466249      38           
    444000   286.78364      69.853811      25           
    445000   155.93123      37.837227      26           
    446000   268.51054      63.025705      41           
    447000   286.52939      68.21752       38           
    448000   305.29477      73.003445      35           
    449000   245.59351      59.503734      27           
    450000   318.41199      76.751901      36           
    451000   251.55575      60.027772      30           
    452000   195.94678      46.352934      31           
    453000   302.21506      70.127782      39           
    454000   240.18752      57.1394        33           
    455000   303.91007      70.631441      46           
    456000   278.45123      66.850182      36           
    457000   312.39047      75.345012      35           
    458000   210.55748      50.18732       33           
    459000   356.58789      86.961276      25           
    460000   217.23136      51.651078      26           
    461000   291.59431      70.137237      26           
    462000   176.86358      37.884243      33           
    463000   315.47887      72.401935      33           
    464000   318.47742      75.542821      37           
    465000   289.95514      69.004889      41           
    466000   225.90545      52.533282      34           
    467000   339.34464      83.131624      26           
    468000   233.81234      55.85125       34           
    469000   293.75391      69.4721        35           
    470000   293.21941      71.363888      24           
    471000   214.89962      50.58132       32           
    472000   247.71094      60.244762      30           
    473000   274.21511      67.454864      33           
    474000   221.08436      52.397529      38           
    475000   301.32         72.479311      27           
    476000   280.22473      66.996695      27           
    477000   251.88694      60.10605       24           
    478000   290.71775      69.501665      39           
    479000   168.03627      37.352778      42           
    480000   328.61591      80.191466      31           
    481000   342.21725      81.403531      32           
    482000   334.31489      81.311083      26           
    483000   342.95565      82.364697      28           
    484000   210.49345      47.066727      42           
    485000   315.72571      73.382804      34           
    486000   233.3421       55.944275      28           
    487000   198.7807       46.563655      34           
    488000   265.07753      64.279525      26           
    489000   215.05088      52.087378      23           
    490000   277.48099      65.893308      28           
    491000   231.51867      55.039792      38           
    492000   270.65029      63.912898      37           
    493000   277.11055      64.857197      33           
    494000   340.90488      80.907795      30           
    495000   269.20864      59.862113      47           
    496000   263.99922      63.790059      31           
    497000   325.36648      78.809953      32           
    498000   211.07519      50.952916      28           
    499000   264.04971      63.770983      37           
    500000   293.01204      70.32233       30           
    501000   283.11724      67.063824      36           
    502000   323.10894      78.721709      29           
    503000   283.60908      68.756971      35           
    504000   293.45706      68.986498      38           
    505000   242.85519      58.726988      32           
    506000   287.27283      65.673159      44           
    507000   309.15821      71.630309      36           
    508000   290.53395      66.417262      34           
    509000   326.2756       76.199875      44           
    510000   281.99317      66.726616      34           
    511000   243.08527      57.023036      28           
    512000   317.78303      74.0685        36           
    513000   250.15396      59.491657      39           
    514000   303.99604      73.612401      33           
    515000   227.65627      55.219122      31           
    516000   270.9076       66.395694      21           
    517000   252.49485      58.904421      32           
    518000   262.05239      59.092147      37           
    519000   305.8221       74.616608      28           
    520000   328.67651      77.935642      25           
    521000   294.94066      69.129613      36           
    522000   264.85061      62.974694      27           
    523000   290.83231      69.236182      36           
    524000   322.77188      75.439231      39           
    525000   273.80956      64.603417      42           
    526000   350.10584      83.937056      21           
    527000   201.63022      47.845281      33           
    528000   225.416        48.198074      42           
    529000   308.83757      74.323946      29           
    530000   336.33211      81.365295      31           
    531000   332.33626      76.823964      34           
    532000   226.22978      51.794059      41           
    533000   313.6671       75.434815      27           
    534000   329.00808      77.930756      29           
    535000   298.02059      71.071668      36           
    536000   267.88258      63.15419       30           
    537000   286.77355      69.3381        31           
    538000   223.89798      54.358781      33           
    539000   313.07751      74.029337      26           
    540000   318.15463      77.984718      17           
    541000   272.35556      64.851731      30           
    542000   300.43258      72.052802      21           
    543000   300.09976      73.067884      26           
    544000   168.45047      37.852694      27           
    545000   276.06994      66.734369      32           
    546000   219.50246      52.447473      35           
    547000   358.25038      85.730032      26           
    548000   276.78111      67.330555      20           
    549000   268.82784      65.041223      18           
    550000   292.74884      70.327802      35           
    551000   227.46498      49.79499       40           
    552000   309.78199      74.011181      35           
    553000   253.64999      60.047223      34           
    554000   350.76444      83.686261      37           
    555000   290.82172      69.77073       35           
    556000   326.17336      75.591822      38           
    557000   275.44428      65.498403      31           
    558000   195.7257       44.345945      38           
    559000   250.84319      58.422732      36           
    560000   297.03682      70.91724       31           
    561000   179.18833      42.011085      34           
    562000   290.57443      70.401615      30           
    563000   279.05133      68.048173      31           
    564000   241.43419      55.398667      33           
    565000   278.84807      67.523274      30           
    566000   312.53441      74.120741      33           
    567000   201.34477      48.995836      25           
    568000   332.0465       79.693532      29           
    569000   227.66822      54.188903      34           
    570000   279.10707      66.76474       35           
    571000   289.4196       68.075552      35           
    572000   285.57003      68.951023      30           
    573000   253.64065      61.435997      26           
    574000   279.11417      65.652779      33           
    575000   264.57608      62.395995      34           
    576000   307.13121      73.381783      35           
    577000   275.84308      66.814404      35           
    578000   210.00046      51.175204      23           
    579000   259.93769      60.895441      32           
    580000   208.20824      50.473364      29           
    581000   312.22328      75.682123      29           
    582000   326.15048      77.99119       35           
    583000   233.20908      56.26814       22           
    584000   248.54967      58.716736      33           
    585000   239.49509      58.009107      27           
    586000   293.05643      70.431459      26           
    587000   254.61257      61.082543      23           
    588000   303.69055      70.775797      32           
    589000   249.25673      59.957248      26           
    590000   293.55286      70.863009      41           
    591000   296.63784      68.561776      45           
    592000   336.74087      76.586862      45           
    593000   328.54999      75.282806      45           
    594000   297.43303      70.513038      33           
    595000   235.809        55.547883      37           
    596000   211.74668      49.379855      39           
    597000   230.13678      55.215076      35           
    598000   205.70704      48.161085      27           
    599000   333.90337      80.664328      28           
    600000   272.07263      66.282935      35           
    601000   228.12299      54.195004      34           
    602000   194.98682      46.081752      32           
    603000   333.4349       80.179495      31           
    604000   326.79416      79.112249      33           
    605000   319.73231      77.565188      28           
    606000   292.30024      69.920207      26           
    607000   286.84654      69.317318      24           
    608000   304.06791      72.522618      31           
    609000   298.92553      70.544899      41           
    610000   302.89681      73.06846       43           
    611000   274.59306      65.074873      31           
    612000   307.99023      74.698879      32           
    613000   267.78368      63.324458      38           
    614000   317.01501      76.488455      38           
    615000   178.03832      42.904847      36           
    616000   291.1228       69.588013      40           
    617000   291.61985      68.785426      35           
    618000   243.02011      57.671004      35           
    619000   304.14313      73.454014      41           
    620000   246.27623      56.974353      27           
    621000   339.1062       82.796601      27           
    622000   275.02996      66.922014      24           
    623000   302.86992      73.234179      23           
    624000   206.20954      45.803846      41           
    625000   229.09918      51.5781        38           
    626000   378.63221      90.221665      37           
    627000   275.27562      65.718741      34           
    628000   258.2778       62.279204      27           
    629000   327.2892       78.788946      28           
    630000   222.49638      53.266763      22           
    631000   340.3728       82.369619      27           
    632000   287.52495      68.929229      36           
    633000   303.0312       72.741241      23           
    634000   294.65566      71.542499      34           
    635000   199.88749      47.719915      36           
    636000   278.75992      64.112569      34           
    637000   197.76107      47.354017      37           
    638000   176.02941      42.86          24           
    639000   242.69762      58.659385      35           
    640000   298.96309      70.498049      40           
    641000   301.86247      72.285411      32           
    642000   296.69586      72.332935      26           
    643000   345.3144       83.554027      22           
    644000   264.51786      61.905059      34           
    645000   328.31184      79.179131      41           
    646000   323.32521      78.945408      22           
    647000   249.15623      59.829621      38           
    648000   271.32904      65.347545      27           
    649000   252.59904      60.680805      29           
    650000   291.54437      70.45815       28           
    651000   285.98926      66.424168      32           
    652000   335.66523      80.515842      34           
    653000   322.12046      76.412456      21           
    654000   222.95522      53.24763       34           
    655000   269.37076      64.539733      24           
    656000   311.39736      76.236729      30           
    657000   212.80951      51.678991      30           
    658000   281.74116      65.299311      43           
    659000   175.03969      40.566671      37           
    660000   319.44091      77.395249      34           
    661000   250.41233      59.866506      33           
    662000   303.36852      71.860837      41           
    663000   366.45266      88.464062      32           
    664000   303.01925      73.884168      34           
    665000   301.37979      73.198072      26           
    666000   237.93121      58.134823      27           
    667000   165.96919      39.596772      31           
    668000   260.71383      63.116185      25           
    669000   277.30159      67.279609      30           
    670000   305.93449      73.581547      29           
    671000   264.42657      63.088849      22           
    672000   304.83168      73.954159      19           
    673000   322.08442      77.799402      36           
    674000   301.75239      71.722475      38           
    675000   305.19962      72.440562      34           
    676000   226.16048      54.222693      30           
    677000   343.77541      81.57612       38           
    678000   314.21708      75.825915      32           
    679000   297.42293      71.917921      31           
    680000   256.50928      62.385418      34           
    681000   224.94091      52.558251      32           
    682000   299.39489      71.191051      35           
    683000   239.82644      56.694935      39           
    684000   287.34071      68.054619      37           
    685000   319.88607      76.130501      31           
    686000   375.8701       88.564727      36           
    687000   305.36402      71.345164      34           
    688000   356.22396      86.010686      35           
    689000   251.99296      60.399082      26           
    690000   247.03431      57.438841      34           
    691000   347.54715      83.414002      35           
    692000   176.51298      41.52573       27           
    693000   214.37616      52.359283      26           
    694000   191.16463      44.955996      35           
    695000   309.39143      74.673921      37           
    696000   318.58593      75.06907       40           
    697000   337.47323      80.639805      40           
    698000   245.75056      59.22263       24           
    699000   238.17133      56.902647      32           
    700000   290.98231      67.728459      31           
    701000   237.30859      56.170016      27           
    702000   296.63454      71.199945      30           
    703000   286.90621      69.700014      28           
    704000   204.96134      49.762959      26           
    705000   296.36458      69.776411      35           
    706000   286.49026      66.926119      40           
    707000   332.82913      81.606172      20           
    708000   301.54712      72.784264      25           
    709000   343.38326      81.245382      35           
    710000   402.47565      97.428654      30           
    711000   265.14436      64.922699      25           
    712000   265.61377      63.176515      21           
    713000   194.13866      44.640304      32           
    714000   322.59058      78.292439      35           
    715000   294.10685      69.193317      31           
    716000   195.01091      45.250814      31           
    717000   294.80718      69.001028      38           
    718000   301.68924      72.503034      44           
    719000   319.98969      76.49544       38           
    720000   207.46079      49.800226      27           
    721000   300.55195      71.86039       33           
    722000   267.74014      62.607734      35           
    723000   299.33862      71.736329      35           
    724000   284.18994      68.221841      38           
    725000   256.31303      59.821772      35           
    726000   294.83928      69.418596      39           
    727000   238.26108      53.726315      37           
    728000   276.18644      64.876616      32           
    729000   251.76392      60.647603      24           
    730000   262.14624      62.396353      28           
    731000   189.4614       44.95159       35           
    732000   186.38646      44.024106      32           
    733000   276.84356      65.121081      32           
    734000   324.3533       78.985703      27           
    735000   322.37154      78.240762      31           
    736000   187.73951      44.611434      26           
    737000   274.19301      65.508673      30           
    738000   253.81956      59.353137      38           
    739000   314.9423       70.74204       44           
    740000   328.56347      75.802894      45           
    741000   227.17802      51.791054      41           
    742000   161.60689      37.450305      34           
    743000   366.03205      88.153323      32           
    744000   286.31946      69.054232      29           
    745000   311.90417      73.70811       36           
    746000   334.32289      79.487359      41           
    747000   316.92631      76.153917      44           
    748000   386.18544      90.394184      47           
    749000   267.81573      62.487675      40           
    750000   280.17162      68.522256      21           
    751000   320.63314      77.459781      33           
    752000   249.62999      60.435584      28           
    753000   249.48802      58.80524       37           
    754000   287.63136      67.922789      42           
    755000   180.41368      40.969467      35           
    756000   326.53599      76.60196       39           
    757000   212.86619      49.816548      32           
    758000   302.40541      72.350539      35           
    759000   213.87609      49.474826      35           
    760000   283.41819      68.285601      25           
    761000   339.1436       82.378757      30           
    762000   278.11747      66.919765      29           
    763000   254.51081      59.081162      37           
    764000   267.18393      64.356547      31           
    765000   283.52228      67.229967      44           
    766000   325.13637      76.936488      37           
    767000   303.1972       72.96119       37           
    768000   296.50706      72.542444      25           
    769000   249.52211      58.910351      33           
    770000   289.40599      70.142101      25           
    771000   261.81297      61.042228      30           
    772000   197.8953       47.237169      25           
    773000   275.06082      67.44459       22           
    774000   192.87562      44.433682      30           
    775000   260.73578      61.895615      24           
    776000   285.66522      68.519594      28           
    777000   248.42882      60.062285      33           
    778000   301.07784      72.003132      31           
    779000   228.41118      53.769294      32           
    780000   305.36294      74.0558        35           
    781000   282.43182      68.434262      32           
    782000   291.55036      69.31104       24           
    783000   345.98348      84.049042      28           
    784000   225.65199      53.124721      30           
    785000   195.60279      46.779076      30           
    786000   292.65174      71.505485      31           
    787000   284.38692      68.233318      34           
    788000   334.67244      81.231825      32           
    789000   327.80144      79.676419      38           
    790000   272.57231      62.112943      44           
    791000   343.75719      80.583447      34           
    792000   304.44868      71.83408       36           
    793000   315.22122      74.908135      32           
    794000   299.63796      72.916928      22           
    795000   201.23516      46.518086      33           
    796000   260.65236      60.404039      44           
    797000   335.2231       81.531543      33           
    798000   282.82852      66.60454       26           
    799000   296.93123      71.954315      38           
    800000   283.56807      67.05146       34           
    801000   283.13981      66.540874      39           
    802000   276.11368      64.700593      39           
    803000   258.47025      61.928582      33           
    804000   298.27066      71.060445      34           
    805000   272.91681      65.153808      31           
    806000   274.38259      63.12921       32           
    807000   307.14669      74.485128      28           
    808000   234.12941      53.761764      33           
    809000   291.15365      69.462243      37           
    810000   237.92234      56.213401      31           
    811000   301.14799      70.093158      41           
    812000   244.61155      56.51663       42           
    813000   293.0393       70.986002      35           
    814000   246.26564      60.002117      33           
    815000   312.94899      73.377218      41           
    816000   238.84886      58.306602      22           
    817000   300.56288      73.281846      27           
    818000   191.27028      46.001479      28           
    819000   271.7662       64.853898      32           
    820000   229.54267      54.854524      29           
    821000   283.96867      67.635512      31           
    822000   316.85171      76.212451      33           
    823000   250.64554      58.063943      37           
    824000   226.56525      53.465548      28           
    825000   274.49785      66.390651      32           
    826000   292.12593      69.755162      36           
    827000   207.13892      49.201542      28           
    828000   258.25335      61.037993      28           
    829000   235.96128      55.939769      35           
    830000   288.30622      66.851383      35           
    831000   297.78746      72.403606      30           
    832000   329.83918      80.256469      30           
    833000   210.37239      50.760809      27           
    834000   320.78446      78.027745      20           
    835000   323.14081      76.500143      29           
    836000   240.18348      55.963934      32           
    837000   324.65126      77.776906      33           
    838000   378.59322      92.195865      33           
    839000   272.91384      66.202927      22           
    840000   233.34899      56.205361      24           
    841000   252.11594      58.735513      37           
    842000   232.72184      54.368181      34           
    843000   301.48514      72.230289      29           
    844000   215.82513      51.351986      34           
    845000   246.67086      59.342734      32           
    846000   341.79467      79.68207       40           
    847000   324.06885      76.126516      40           
    848000   218.64896      52.27757       26           
    849000   305.41433      75.066988      24           
    850000   268.50408      65.414906      30           
    851000   182.10705      42.999139      33           
    852000   305.29987      73.51499       25           
    853000   198.15747      48.004879      21           
    854000   315.9203       77.151576      23           
    855000   263.90832      62.409934      40           
    856000   283.41056      68.223324      27           
    857000   313.3814       75.111352      38           
    858000   249.03087      56.565901      36           
    859000   295.21102      69.687169      35           
    860000   348.20963      84.24701       29           
    861000   215.99601      48.938772      38           
    862000   372.48606      89.630935      40           
    863000   214.61308      50.81411       33           
    864000   236.47359      57.246547      26           
    865000   268.68802      63.700815      43           
    866000   320.86437      76.343541      31           
    867000   165.04439      40.093166      25           
    868000   195.22173      46.523407      28           
    869000   301.01392      72.05272       38           
    870000   294.12268      66.904712      44           
    871000   219.09449      51.079061      34           
    872000   278.72569      66.559008      40           
    873000   311.57248      74.376363      30           
    874000   316.82606      76.100639      30           
    875000   258.45459      60.693371      41           
    876000   292.97921      69.989328      33           
    877000   310.64603      75.537726      29           
    878000   266.70469      63.581574      39           
    879000   241.77845      56.93736       37           
    880000   263.72322      64.349976      28           
    881000   203.04634      48.071799      34           
    882000   274.86508      66.365882      27           
    883000   216.35086      52.129489      29           
    884000   279.80954      66.359455      39           
    885000   278.6148       67.348288      26           
    886000   207.10323      49.981107      31           
    887000   239.03336      55.658799      42           
    888000   288.1559       69.255157      42           
    889000   212.19609      47.796765      31           
    890000   292.00966      67.981189      37           
    891000   218.13548      50.103649      41           
    892000   283.9412       67.410985      35           
    893000   353.95163      84.2537        27           
    894000   229.20753      54.844078      26           
    895000   300.39647      73.673079      27           
    896000   275.37977      64.955487      44           
    897000   320.84236      75.815696      31           
    898000   226.85681      50.180829      41           
    899000   303.92048      73.964683      32           
    900000   245.1381       56.664719      35           
    901000   295.53618      71.199217      39           
    902000   278.52733      66.984085      30           
    903000   322.51835      77.801508      28           
    904000   228.6958       54.916243      34           
    905000   223.82867      50.231101      40           
    906000   284.7159       69.410784      29           
    907000   289.19089      67.685453      31           
    908000   242.11726      59.010105      26           
    909000   273.38         66.482997      32           
    910000   263.74686      63.993271      25           
    911000   287.54602      70.351228      22           
    912000   205.14506      50.035329      35           
    913000   277.28249      65.288492      42           
    914000   285.77818      68.679581      35           
    915000   303.33673      69.424861      42           
    916000   279.98791      66.022823      34           
    917000   273.23893      66.096201      29           
    918000   210.9414       50.494441      30           
    919000   241.52145      57.768181      33           
    920000   283.30505      69.557599      34           
    921000   200.34671      46.482871      35           
    922000   295.9294       70.543551      42           
    923000   256.84919      61.875219      33           
    924000   306.13366      73.821797      37           
    925000   275.57555      66.905239      31           
    926000   319.90804      78.433625      18           
    927000   278.81517      66.51944       24           
    928000   271.72196      65.188039      31           
    929000   308.43051      75.03166       21           
    930000   204.87553      48.976112      29           
    931000   218.59019      52.109521      32           
    932000   208.33556      50.028357      23           
    933000   215.84022      52.569868      30           
    934000   290.22451      68.068499      38           
    935000   266.26192      63.677104      34           
    936000   311.85068      73.909248      38           
    937000   268.85519      59.671053      34           
    938000   297.57504      70.787322      39           
    939000   309.37913      74.793676      29           
    940000   177.06119      41.364703      26           
    941000   297.33204      69.888644      33           
    942000   331.26767      79.606627      31           
    943000   307.73416      74.899772      22           
    944000   242.69129      58.275304      26           
    945000   255.44593      61.66871       28           
    946000   335.90844      81.13264       26           
    947000   209.14573      49.258252      29           
    948000   301.22543      71.732397      40           
    949000   204.54133      47.26623       34           
    950000   333.92122      80.41313       25           
    951000   197.68976      47.704854      28           
    952000   231.94698      55.00533       28           
    953000   292.67259      71.496071      26           
    954000   255.55389      60.940827      39           
    955000   359.29639      85.393796      41           
    956000   309.26032      73.399713      43           
    957000   329.00257      77.571429      40           
    958000   220.99943      51.013028      39           
    959000   298.58256      72.370593      35           
    960000   239.9852       56.911705      24           
    961000   232.78513      54.304941      39           
    962000   286.24495      69.374755      27           
    963000   267.40989      65.124532      28           
    964000   323.99501      78.822429      32           
    965000   192.19217      45.672249      32           
    966000   266.81388      64.011996      31           
    967000   228.93923      55.15823       28           
    968000   218.5738       53.001802      28           
    969000   241.31519      57.310758      25           
    970000   198.77924      47.095422      31           
    971000   291.58326      69.267324      39           
    972000   302.02158      71.570034      33           
    973000   289.32573      65.587518      38           
    974000   274.43497      65.202342      41           
    975000   320.37808      77.29698       34           
    976000   279.13546      67.46344       26           
    977000   265.33186      63.562317      28           
    978000   325.09098      78.954153      28           
    979000   293.20634      69.181037      36           
    980000   280.70635      64.985055      34           
    981000   287.37746      70.002794      25           
    982000   286.6906       68.157965      33           
    983000   270.04067      64.428854      34           
    984000   224.14035      53.208285      34           
    985000   318.12724      76.32357       37           
    986000   285.25993      66.609638      36           
    987000   298.07419      71.011297      30           
    988000   338.66365      79.713928      36           
    989000   287.17493      67.855393      40           
    990000   297.38356      72.929972      20           
    991000   326.33619      77.999134      30           
    992000   309.70671      72.360106      38           
    993000   328.02585      73.174493      42           
    994000   310.87177      71.534903      38           
    995000   233.31629      55.059987      34           
    996000   264.0206       63.603552      36           
    997000   299.5494       71.363848      34           
    998000   265.19818      64.641248      26           
    999000   259.10689      61.769948      30           
   1000000   218.60042      52.710899      35           
   1001000   301.18397      70.554891      35           
   1002000   241.30197      56.658208      31           
   1003000   293.90605      71.045035      27           
   1004000   313.62746      74.83233       31           
   1005000   292.16649      68.917215      37           
   1006000   206.54928      49.125547      29           
   1007000   301.11174      71.224301      41           
   1008000   327.41595      77.394103      36           
   1009000   299.73178      71.316249      32           
   1010000   299.33097      71.109051      35           
   1011000   303.88185      74.098324      34           
   1012000   294.59038      70.085183      36           
   1013000   155.71529      36.110861      28           
   1014000   268.39166      63.576045      33           
   1015000   186.02612      45.57215       30           
   1016000   254.19341      59.987488      39           
   1017000   305.24218      72.964588      34           
   1018000   323.00475      76.534034      43           
   1019000   264.02083      63.864211      34           
   1020000   248.12817      60.295477      29           
   1021000   289.31819      69.944734      30           
   1022000   338.54605      77.904345      43           
   1023000   285.25629      68.706935      32           
   1024000   250.46153      60.404712      34           
   1025000   345.28725      81.975096      40           
   1026000   274.62792      64.405819      41           
   1027000   313.05963      72.593912      40           
   1028000   289.23399      67.378441      29           
   1029000   324.32717      74.404994      44           
   1030000   280.07538      65.831707      32           
   1031000   268.14309      64.36491       29           
   1032000   229.27444      55.159072      27           
   1033000   284.17601      68.923687      26           
   1034000   270.19198      65.260566      27           
   1035000   175.66593      40.859946      47           
   1036000   310.3567       74.189785      35           
   1037000   305.2718       73.100463      28           
   1038000   342.86959      82.573898      28           
   1039000   271.7311       64.297695      31           
   1040000   325.30238      76.574312      37           
   1041000   329.88856      79.692495      36           
   1042000   294.72868      69.690083      42           
   1043000   309.52683      72.328484      39           
   1044000   245.64457      55.536312      38           
   1045000   290.86728      70.593623      25           
   1046000   293.98534      70.012001      37           
   1047000   314.01078      75.284041      26           
   1048000   252.21489      61.640921      27           
   1049000   215.39259      51.907143      30           
   1050000   306.16206      74.242496      36           
   1051000   220.03603      52.775337      28           
   1052000   224.61422      54.360282      26           
   1053000   271.73621      65.256013      30           
   1054000   202.87996      48.513313      30           
   1055000   237.87042      57.638725      27           
   1056000   281.87401      69.166167      17           
   1057000   281.92706      68.100982      35           
   1058000   193.36205      45.772094      30           
   1059000   316.49036      75.866187      29           
   1060000   235.28792      56.192136      29           
   1061000   242.87433      57.553589      40           
   1062000   296.43714      72.656328      30           
   1063000   218.49658      52.855881      22           
   1064000   316.27561      77.030897      33           
   1065000   233.66732      56.852262      32           
   1066000   335.13021      80.444406      32           
   1067000   311.16461      75.638137      25           
   1068000   264.16275      64.157032      37           
   1069000   236.48959      54.339419      34           
   1070000   276.06925      64.839947      36           
   1071000   299.14998      71.550773      32           
   1072000   305.33045      72.967373      37           
   1073000   274.552        65.849814      42           
   1074000   227.78727      55.033935      39           
   1075000   205.20747      49.943618      26           
   1076000   214.36872      51.947799      24           
   1077000   257.87407      61.527023      30           
   1078000   314.59216      76.287563      31           
   1079000   279.00131      67.822172      26           
   1080000   315.44008      75.531322      33           
   1081000   280.5321       66.169432      36           
   1082000   224.25528      54.773075      24           
   1083000   294.3483       67.53949       48           
   1084000   254.12695      58.906263      35           
   1085000   278.81167      65.890906      40           
   1086000   213.18398      50.075295      32           
   1087000   340.01151      82.130099      43           
   1088000   325.57133      76.531059      37           
   1089000   301.7842       70.005179      35           
   1090000   263.46831      61.895667      35           
   1091000   225.53406      52.272406      35           
   1092000   306.46175      71.864121      41           
   1093000   281.41783      65.406385      27           
   1094000   327.35816      76.425819      31           
   1095000   276.0475       67.437252      29           
   1096000   250.94488      58.068788      42           
   1097000   335.18056      78.965705      37           
   1098000   254.89552      59.365429      37           
   1099000   239.89872      57.583134      24           
   1100000   311.16029      74.251515      40           
   1101000   313.03239      73.909426      40           
   1102000   272.18412      65.698158      25           
   1103000   269.58046      64.116858      28           
   1104000   204.93599      46.735332      35           
   1105000   203.03311      46.857339      38           
   1106000   322.53104      77.720279      33           
   1107000   278.90699      64.427299      43           
   1108000   329.21997      78.613748      33           
   1109000   285.8348       68.955743      33           
   1110000   282.43297      67.132879      39           
   1111000   255.17985      60.430477      41           
   1112000   258.00258      61.755592      32           
   1113000   278.37358      67.397876      30           
   1114000   298.5146       70.966363      42           
   1115000   299.2038       70.191169      40           
   1116000   284.0383       68.575953      33           
   1117000   351.79967      81.757298      37           
   1118000   343.411        81.222297      45           
   1119000   276.59856      65.966931      39           
   1120000   302.75229      72.350352      33           
   1121000   279.78374      67.72033       23           
   1122000   231.28583      54.955737      34           
   1123000   212.7376       51.024874      28           
   1124000   300.25708      71.320541      37           
   1125000   299.16572      70.68304       35           
   1126000   191.05958      45.404555      24           
   1127000   202.7412       47.812475      38           
   1128000   217.16402      52.146435      26           
   1129000   280.61104      68.594422      27           
   1130000   180.04436      43.361802      24           
   1131000   323.68726      74.360874      33           
   1132000   272.15846      64.598856      32           
   1133000   187.14741      45.525811      36           
   1134000   292.58515      70.438321      35           
   1135000   326.9773       77.752308      37           
   1136000   340.80177      82.72139       26           
   1137000   330.97567      79.12796       40           
   1138000   188.48564      44.5943        31           
   1139000   318.97887      77.138824      38           
   1140000   196.52292      46.509043      30           
   1141000   291.23264      70.501202      32           
   1142000   264.88342      64.912581      30           
   1143000   241.54729      58.940303      24           
   1144000   274.34221      64.140627      37           
   1145000   247.83322      57.303587      30           
   1146000   316.65593      76.176489      25           
   1147000   267.228        64.02465       24           
   1148000   320.63212      78.441849      26           
   1149000   279.58217      68.201534      31           
   1150000   277.663        67.698397      33           
   1151000   214.27355      49.997183      32           
   1152000   283.51805      66.845042      29           
   1153000   310.10709      75.701645      27           
   1154000   226.42517      55.022003      25           
   1155000   188.43102      45.963636      21           
   1156000   236.6194       57.828851      24           
   1157000   212.32263      50.677075      32           
   1158000   281.41989      66.765589      34           
   1159000   301.43188      70.67019       35           
   1160000   269.235        65.054198      37           
   1161000   241.45699      56.879844      41           
   1162000   203.46031      48.380493      35           
   1163000   326.01538      77.654361      28           
   1164000   289.18157      68.96498       34           
   1165000   239.30239      56.789909      29           
   1166000   208.45417      50.369004      30           
   1167000   308.69085      75.617237      23           
   1168000   269.25064      65.586349      22           
   1169000   164.48813      39.745797      29           
   1170000   247.914        56.189283      40           
   1171000   189.94914      42.645414      44           
   1172000   327.43819      78.181601      36           
   1173000   273.18674      65.501036      42           
   1174000   224.75129      54.778958      27           
   1175000   182.62318      43.118568      29           
   1176000   297.16086      70.989938      31           
   1177000   258.65654      60.875178      25           
   1178000   327.34616      80.27648       17           
   1179000   201.40837      49.306338      15           
   1180000   302.01627      72.917823      32           
   1181000   228.45043      54.252868      31           
   1182000   296.22884      71.86068       34           
   1183000   340.06831      82.253693      33           
   1184000   281.50576      68.650815      31           
   1185000   266.26491      64.182529      26           
   1186000   285.94127      67.616166      36           
   1187000   327.82716      79.287863      36           
   1188000   237.9203       57.4955        31           
   1189000   266.61058      65.182042      26           
   1190000   280.90667      68.614748      26           
   1191000   151.82179      36.746791      28           
   1192000   221.31673      51.996708      27           
   1193000   347.56222      84.141714      36           
   1194000   302.84578      73.778029      27           
   1195000   204.89267      49.652112      28           
   1196000   264.12456      63.244189      23           
   1197000   162.85275      39.042393      23           
   1198000   303.45939      72.937677      38           
   1199000   310.11378      71.207037      42           
   1200000   270.52653      60.24821       41           
   1201000   335.93235      80.398916      35           
   1202000   258.44165      61.548749      28           
   1203000   320.53766      75.758768      38           
   1204000   249.19937      58.999738      32           
   1205000   210.68715      49.033857      39           
   1206000   277.64165      63.926775      43           
   1207000   307.18634      72.961681      35           
   1208000   292.3164       68.43553       39           
   1209000   295.46222      68.756712      39           
   1210000   322.71608      75.978051      37           
   1211000   271.74893      66.099263      28           
   1212000   293.26313      69.708294      31           
   1213000   293.35288      68.793006      38           
   1214000   229.42927      56.133727      29           
   1215000   293.50282      71.127823      32           
   1216000   273.10611      64.864262      26           
   1217000   295.16581      70.846231      27           
   1218000   266.78473      63.918402      36           
   1219000   269.78389      63.800513      37           
   1220000   328.18546      78.710394      29           
   1221000   262.418        63.544506      34           
   1222000   163.07387      39.734398      27           
   1223000   226.59788      54.055588      24           
   1224000   290.29966      70.579166      24           
   1225000   196.07055      45.986421      25           
   1226000   212.09616      50.558248      31           
   1227000   316.78115      74.630592      35           
   1228000   314.53029      74.440905      35           
   1229000   187.73683      45.954906      36           
   1230000   274.61777      65.920331      36           
   1231000   262.35926      61.451289      29           
   1232000   271.40364      63.125215      38           
   1233000   290.55186      67.985277      43           
   1234000   276.10874      67.525525      24           
   1235000   235.84671      56.29694       31           
   1236000   291.3283       68.455586      35           
   1237000   301.96787      70.588932      27           
   1238000   287.90835      63.747555      38           
   1239000   293.08831      68.59572       33           
   1240000   276.11225      64.718909      41           
   1241000   287.89432      67.989408      23           
   1242000   269.36327      63.866803      36           
   1243000   240.37591      55.41033       33           
   1244000   294.11147      70.080249      35           
   1245000   311.47047      75.656694      36           
   1246000   284.02825      67.307602      34           
   1247000   266.73878      63.088583      36           
   1248000   278.6011       67.055295      28           
   1249000   362.70802      88.046621      43           
   1250000   186.88533      43.747484      33           
   1251000   256.95889      60.574011      25           
   1252000   283.11807      64.304846      40           
   1253000   300.88132      71.526605      31           
   1254000   229.63925      55.233701      29           
   1255000   231.65678      56.609213      27           
   1256000   240.01981      56.515528      29           
   1257000   281.60292      66.480218      27           
   1258000   243.84457      56.38643       42           
   1259000   261.78039      61.574804      40           
   1260000   322.20952      77.669056      37           
   1261000   262.04561      61.602258      34           
   1262000   292.50981      67.230337      49           
   1263000   311.42856      71.86852       51           
   1264000   298.92544      68.680644      50           
   1265000   251.30146      60.80413       38           
   1266000   308.31564      72.583174      34           
   1267000   285.72359      68.138637      27           
   1268000   314.00059      72.027814      35           
   1269000   314.29562      74.82561       30           
   1270000   261.95912      61.77589       31           
   1271000   308.25852      72.771084      38           
[...]
   2175000   318.38408      75.726976      35           
   2176000   289.62115      70.046258      24           
   2177000   282.10595      69.137659      34           
   2178000   301.69585      70.96082       32           
   2179000   321.53806      75.477455      42           
   2180000   292.61803      71.617627      38           
   2181000   306.76668      72.129609      37           
   2182000   232.5945       56.465217      32           
   2183000   267.59922      65.186449      36           
   2184000   268.70453      64.563259      35           
   2185000   192.1767       46.520078      31           
   2186000   151.104        36.684083      25           
   2187000   212.26611      48.114992      36           
   2188000   301.33284      73.418719      33           
   2189000   290.08578      70.094347      27           
   2190000   246.66697      58.866733      35           
   2191000   311.38412      73.544808      31           
   2192000   283.39139      67.472944      33           
   2193000   307.08794      73.046092      36           
   2194000   272.15616      65.159076      33           
   2195000   327.42115      77.607846      42           
   2196000   240.52935      58.053153      25           
   2197000   269.4414       65.613708      33           
   2198000   238.61596      58.04366       26           
   2199000   310.80445      74.104602      36           
   2200000   321.61301      77.946517      33           
   2201000   219.46464      51.544177      26           
   2202000   278.31694      66.77081       25           
   2203000   319.83595      77.001309      21           
   2204000   292.80249      69.019935      29           
   2205000   371.7874       89.213606      35           
   2206000   227.2502       53.278549      28           
   2207000   257.26451      59.587494      42           
   2208000   357.94323      85.078148      36           
   2209000   231.77163      54.308743      41           
   2210000   298.46572      70.814363      36           
   2211000   295.93597      70.94411       25           
   2212000   266.2137       63.400681      29           
   2213000   231.84288      54.775238      39           
   2214000   260.89864      61.658782      25           
   2215000   313.12018      75.628527      25           
   2216000   287.07228      68.582538      28           
   2217000   256.83365      60.813289      38           
   2218000   288.56478      64.780576      43           
   2219000   243.08995      56.709543      40           
   2220000   260.51731      60.753593      37           
   2221000   298.53941      71.618583      31           
   2222000   173.62239      40.870811      30           
   2223000   326.55023      78.479531      31           
   2224000   189.34017      44.81433       27           
   2225000   284.47341      68.171099      32           
   2226000   246.30577      55.207497      38           
   2227000   276.58306      66.047503      31           
   2228000   260.04857      67.51522       36           
   2229000   271.51794      65.657667      38           
   2230000   357.60643      86.059572      33           
   2231000   314.94689      76.147723      31           
   2232000   337.25578      80.614884      38           
   2233000   280.69942      66.358705      36           
   2234000   222.36173      53.889205      25           
   2235000   321.78222      77.935783      28           
   2236000   194.49858      47.44123       20           
   2237000   329.34747      78.906975      27           
   2238000   254.16792      58.762748      45           
   2239000   279.19576      67.177533      27           
   2240000   264.86728      64.243824      30           
   2241000   185.13588      44.681168      36           
   2242000   293.55232      68.491982      40           
   2243000   301.17626      68.527789      35           
   2244000   261.12051      63.399765      33           
   2245000   271.33933      64.857785      30           
   2246000   290.62114      69.753095      36           
   2247000   308.5115       72.928914      36           
   2248000   230.81138      53.361551      32           
   2249000   316.68666      77.236428      29           
   2250000   312.17564      75.676072      23           
   2251000   260.26688      62.733405      37           
   2252000   204.67222      49.335152      26           
   2253000   283.84858      68.881902      34           
   2254000   187.54686      44.127545      33           
   2255000   360.98537      86.166436      30           
   2256000   309.48705      75.358281      36           
   2257000   274.51035      65.785308      31           
   2258000   260.87426      63.081158      35           
   2259000   266.32789      62.295353      45           
   2260000   311.37968      73.071425      33           
   2261000   310.90008      74.001707      38           
   2262000   288.49268      69.65101       27           
   2263000   189.66091      45.83581       37           
   2264000   243.88264      58.441734      25           
   2265000   239.45006      58.482368      34           
   2266000   214.5591       51.831367      29           
   2267000   294.70511      71.429353      35           
   2268000   323.10507      78.807481      24           
   2269000   248.72955      58.861145      23           
   2270000   287.86822      68.910427      29           
   2271000   241.18816      56.80204       30           
   2272000   294.84952      71.814413      35           
   2273000   253.11703      61.305959      30           
   2274000   340.75696      81.357711      32           
   2275000   261.72494      63.792102      37           
   2276000   236.23056      56.272117      27           
   2277000   291.87423      70.360543      37           
   2278000   270.28897      63.353844      33           
   2279000   307.90767      70.502582      40           
   2280000   273.60597      62.042512      39           
   2281000   255.88649      61.833957      36           
   2282000   237.35938      57.151018      33           
   2283000   285.86615      66.924432      39           
   2284000   318.13857      74.371328      35           
   2285000   303.09574      72.828155      27           
   2286000   249.21399      60.784337      21           
   2287000   305.12434      74.83984       19           
   2288000   168.9065       40.6269        27           
   2289000   295.63915      70.600171      38           
   2290000   285.19367      68.677802      30           
   2291000   253.73131      60.814528      25           
   2292000   200.18649      48.39681       35           
   2293000   308.6525       73.26936       37           
   2294000   229.88874      53.724596      38           
   2295000   327.76297      77.846373      30           
   2296000   214.82924      51.437845      28           
   2297000   310.738        73.576292      33           
   2298000   282.97993      67.053051      35           
   2299000   296.34475      70.765274      35           
   2300000   287.45343      68.03711       33           
   2301000   320.98301      76.676654      34           
   2302000   269.5771       65.409497      20           
   2303000   289.5458       73.816948      27           
   2304000   229.31981      53.957946      33           
   2305000   200.14498      48.123275      29           
   2306000   217.48425      49.507068      43           
   2307000   244.22457      54.982684      48           
   2308000   278.29371      66.800446      35           
   2309000   301.68085      73.214086      42           
   2310000   254.11744      60.281292      32           
   2311000   249.7982       61.0855        27           
   2312000   204.02972      49.630795      30           
   2313000   336.70154      80.82039       23           
   2314000   197.77349      46.687071      32           
   2315000   249.39664      60.768186      29           
   2316000   212.66561      51.165158      27           
   2317000   279.54735      66.564445      33           
   2318000   339.7412       81.399807      32           
   2319000   317.27602      75.884337      22           
   2320000   265.09106      63.46678       33           
   2321000   279.68023      67.349911      37           
   2322000   307.42631      73.152049      38           
   2323000   332.68952      76.947249      39           
   2324000   287.14451      67.588059      32           
   2325000   295.41482      69.140857      34           
   2326000   287.01372      68.580894      31           
   2327000   296.84975      71.200502      33           
   2328000   298.88597      72.057518      32           
   2329000   295.32447      67.86867       46           
   2330000   213.75737      50.289767      39           
   2331000   325.67758      78.352199      38           
   2332000   288.19245      66.193918      44           
   2333000   283.62118      65.587875      48           
   2334000   246.29679      56.116993      45           
   2335000   280.66891      64.836675      39           
   2336000   262.31223      62.648032      32           
   2337000   195.98843      46.515377      30           
   2338000   311.90585      74.568879      34           
   2339000   254.43676      58.357494      37           
   2340000   279.57384      66.795455      33           
   2341000   275.4392       66.248174      31           
   2342000   224.51994      53.049785      26           
   2343000   298.95299      69.771631      37           
   2344000   225.76372      53.771369      36           
   2345000   298.87158      69.961192      46           
   2346000   268.95773      64.47226       38           
   2347000   328.50527      79.387405      35           
   2348000   325.39896      76.471833      37           
   2349000   267.59466      61.738272      40           
   2350000   276.73833      64.840982      35           
   2351000   259.6975       61.444893      35           
   2352000   283.88224      68.885433      32           
   2353000   331.54716      79.845585      41           
   2354000   214.46275      51.708205      29           
   2355000   293.47652      71.414783      28           
   2356000   315.16981      75.801618      33           
   2357000   305.83218      73.874002      29           
   2358000   294.64765      70.181917      32           
   2359000   218.20749      52.214652      28           
   2360000   314.01048      76.837993      22           
   2361000   198.07813      44.639687      34           
   2362000   299.14288      71.346418      32           
   2363000   199.4241       47.460944      28           
   2364000   277.75043      63.944927      38           
   2365000   308.99785      74.965642      33           
   2366000   204.57386      47.935494      34           
   2367000   287.26744      69.665011      22           
   2368000   220.29144      53.131068      25           
   2369000   330.78397      78.888319      31           
   2370000   256.89157      61.160748      34           
   2371000   348.7613       82.446591      37           
   2372000   249.0971       59.055219      36           
   2373000   314.29736      76.355428      33           
   2374000   235.95372      56.927882      29           
   2375000   256.41489      61.893893      20           
   2376000   256.60676      62.430395      31           
   2377000   236.52763      57.216588      34           
   2378000   295.85552      69.92242       35           
   2379000   285.93004      67.706643      30           
   2380000   300.70308      72.825203      34           
   2381000   356.48671      85.098016      30           
   2382000   162.15834      39.416192      22           
   2383000   333.05642      80.045113      27           
   2384000   251.13406      60.98957       32           
   2385000   307.90597      73.896323      40           
   2386000   275.68843      65.393446      35           
   2387000   310.84866      74.371798      27           
   2388000   250.64998      60.013648      34           
   2389000   251.16456      61.324794      26           
   2390000   219.15055      51.502638      23           
   2391000   347.26387      84.94711       31           
   2392000   312.90738      73.625607      35           
   2393000   314.02239      70.240465      38           
   2394000   284.87189      68.50036       25           
   2395000   237.89787      56.804553      33           
   2396000   297.04367      71.266425      35           
   2397000   334.53508      79.86847       30           
   2398000   310.82198      74.705421      32           
   2399000   299.87789      71.660319      38           
   2400000   269.0442       63.407108      42           
   2401000   301.09672      71.025121      41           
   2402000   265.44954      61.205573      50           
   2403000   364.30889      82.074705      57           
   2404000   311.10597      73.607102      39           
   2405000   291.47676      69.124759      35           
   2406000   280.62855      68.673936      21           
   2407000   190.02797      44.961921      33           
   2408000   316.40088      77.112312      31           
   2409000   207.6266       48.896856      31           
   2410000   375.7411       91.980685      23           
   2411000   242.27962      57.614149      33           
   2412000   315.73958      74.789375      41           
   2413000   335.49096      80.547695      31           
   2414000   248.54488      57.260094      39           
   2415000   257.32101      61.044451      37           
   2416000   317.08874      75.150063      36           
   2417000   297.17126      69.241405      42           
   2418000   301.82523      69.22587       44           
   2419000   293.51568      70.708477      26           
   2420000   198.04169      46.369537      27           
   2421000   235.93743      56.361313      40           
   2422000   288.01551      68.628927      28           
   2423000   295.27897      70.970918      28           
   2424000   244.0044       58.825649      27           
   2425000   295.67918      71.296903      35           
   2426000   293.38067      70.224905      32           
   2427000   254.83762      59.030558      37           
   2428000   287.95775      66.830584      35           
   2429000   338.56174      81.127277      33           
   2430000   266.11545      63.327883      27           
   2431000   243.75021      58.120753      36           
   2432000   292.74791      70.81884       20           
   2433000   315.1706       76.259439      35           
   2434000   231.48241      55.659896      27           
   2435000   216.85743      52.381669      30           
   2436000   289.64781      68.948555      26           
   2437000   332.9113       79.944198      40           
   2438000   238.55263      56.685548      32           
   2439000   303.28373      73.757802      29           
   2440000   306.15577      74.324845      27           
   2441000   269.83625      62.99148       29           
   2442000   239.43339      56.996701      39           
   2443000   297.38507      71.335266      36           
   2444000   272.98883      65.145437      34           
   2445000   187.44079      44.110763      25           
   2446000   330.62577      80.459704      22           
   2447000   223.10041      54.274722      33           
   2448000   315.7951       76.335162      33           
   2449000   294.80767      70.682744      34           
   2450000   325.65142      77.437706      32           
   2451000   273.78894      66.522034      24           
   2452000   316.1694       75.154678      25           
   2453000   308.03421      73.651356      39           
   2454000   279.29019      66.766215      29           
   2455000   292.39864      71.333538      32           
   2456000   353.78724      86.812561      28           
   2457000   310.27927      75.848917      23           
   2458000   163.1602       40.020826      17           
   2459000   223.99487      53.759177      22           
   2460000   301.0795       71.221659      35           
   2461000   314.89328      76.174029      36           
   2462000   290.20907      68.76797       34           
   2463000   259.9387       59.747898      43           
   2464000   308.22418      73.074496      38           
   2465000   193.16349      47.207889      22           
   2466000   233.21517      56.031381      27           
   2467000   299.98977      73.174361      31           
   2468000   282.94278      66.905239      45           
   2469000   277.49522      67.053894      33           
   2470000   221.90347      53.233234      29           
   2471000   212.5585       48.849288      33           
   2472000   322.81969      78.39119       30           
   2473000   322.26213      78.072329      27           
   2474000   329.67743      78.42528       28           
   2475000   165.20583      38.497325      25           
   2476000   327.7941       78.127049      29           
   2477000   309.64026      74.803509      30           
   2478000   299.81088      72.210728      37           
   2479000   256.33137      62.353657      31           
   2480000   226.81         53.952103      37           
   2481000   324.2671       77.28795       38           
   2482000   325.50512      79.190912      33           
   2483000   299.55966      72.78164       28           
   2484000   302.72927      72.852805      26           
   2485000   307.8772       74.275753      27           
   2486000   217.21428      52.366907      39           
   2487000   271.46139      65.084311      30           
   2488000   260.33189      63.249234      36           
   2489000   245.84639      54.844347      43           
   2490000   295.09557      71.333969      34           
   2491000   211.10201      49.090141      25           
   2492000   198.65317      43.195745      40           
   2493000   294.06576      71.006624      28           
   2494000   301.53804      72.14971       23           
   2495000   219.27845      53.54299       23           
   2496000   184.26731      44.751989      28           
   2497000   203.22092      47.777788      32           
   2498000   303.70559      73.199131      34           
   2499000   302.13883      72.235073      27           
   2500000   294.04595      72.027363      25           
   2501000   294.20629      70.28222       35           
   2502000   321.18939      76.912685      31           
Loop time of 726.873 on 8 procs for 2500000 steps with 93 atoms

Performance: 297.163 ns/day, 0.081 hours/ns, 3439.391 timesteps/s, 319.863 katom-step/s
799.2% CPU use with 1 MPI tasks x 8 OpenMP threads

MPI task timing breakdown:
Section |  min time  |  avg time  |  max time  |%varavg| %total
---------------------------------------------------------------
Pair    | 10.502     | 10.502     | 10.502     |   0.0 |  1.44
Bond    | 12.691     | 12.691     | 12.691     |   0.0 |  1.75
Kspace  | 538.17     | 538.17     | 538.17     |   0.0 | 74.04
Neigh   | 1.3166     | 1.3166     | 1.3166     |   0.0 |  0.18
Comm    | 4.4452     | 4.4452     | 4.4452     |   0.0 |  0.61
Output  | 0.053678   | 0.053678   | 0.053678   |   0.0 |  0.01
Modify  | 158.43     | 158.43     | 158.43     |   0.0 | 21.80
Other   |            | 1.266      |            |       |  0.17

Nlocal:             93 ave          93 max          93 min
Histogram: 1 0 0 0 0 0 0 0 0 0
Nghost:            245 ave         245 max         245 min
Histogram: 1 0 0 0 0 0 0 0 0 0
Neighs:            494 ave         494 max         494 min
Histogram: 1 0 0 0 0 0 0 0 0 0

Total # of neighbors = 494
Ave neighs/atom = 5.311828
Ave special neighs/atom = 2
Neighbor list builds = 339051
Dangerous builds = 0
Total wall time: 0:12:07
