LAMMPS (27 Jun 2024)
  using 8 OpenMP thread(s) per MPI task
package omp 0
using multi-threaded neighbor list subroutines
# LAMMPS input script by Simon Gravelle
# For LAMMPS tutorials, see https://lammpstutorials.github.io
# Last tested using the 27Jun2024 LAMMPS version

variable Nstep equal 2500000
variable mu_K equal -3400
variable mu_kcal_mol equal ${mu_K}*0.0019872041
variable mu_kcal_mol equal -3400*0.0019872041
print "mu equal ${mu_kcal_mol}"
mu equal -6.75649394
variable tfac equal 5.0/3.0
variable Nattempt equal 100

units real
boundary p p p
atom_style full
pair_style lj/cut/coul/long 12
kspace_style ewald 1.0e-5
bond_style harmonic
angle_style harmonic
pair_modify mix geometric
special_bonds lj 0.0 0.0 0.0 coul 0.0 0.0 0.0 angle yes

read_data box.data
Reading data file ...
  orthogonal box = (-12.5 -12.5 -12.5) to (12.5 12.5 12.5)
  1 by 1 by 1 MPI processor grid
  reading atom labelmap ...
  reading bond labelmap ...
  reading angle labelmap ...
  reading atoms ...
  150 atoms
  reading velocities ...
  150 velocities
  scanning bonds ...
  1 = max bonds/atom
  scanning angles ...
  1 = max angles/atom
  orthogonal box = (-12.5 -12.5 -12.5) to (12.5 12.5 12.5)
  1 by 1 by 1 MPI processor grid
  reading bonds ...
  100 bonds
  reading angles ...
  50 angles
Finding 1-2 1-3 1-4 neighbors ...
  special bond factors lj:    0        0        0       
  special bond factors coul:  0        0        0       
     2 = max # of 1-2 neighbors
     1 = max # of 1-3 neighbors
     1 = max # of 1-4 neighbors
  100 = # of 1-3 neighbors before angle trim
  100 = # of 1-3 neighbors after angle trim
     2 = max # of special neighbors
  special bonds CPU = 0.000 seconds
  read_data CPU = 0.015 seconds
labelmap atom 1 O 2 C
labelmap bond 1 C-O
labelmap angle 1 O-C-O

group CO2 type C O
150 atoms in group CO2
include parm.lmp
# LAMMPS parameter file for H2O SPCE water model
# For conversion from K to kcal / mol, multiply
# by Boltzmann = 0.0019872041 kcal / (mol * K)

mass O 15.9994
mass C 12.0110

pair_coeff O O 0.164858 3.011
pair_coeff C C 0.05894 2.789

bond_coeff C-O 0.0 1.18 # rigid

angle_coeff O-C-O 0.0 180.0 # rigid

molecule CO2mol CO2.mol
Read molecule template CO2mol:
# LAMMPS molecule file for carbondioxide
  1 molecules
  0 fragments
  3 atoms with max type 2
  2 bonds with max type 1
  1 angles with max type 1
  0 dihedrals with max type 0
  0 impropers with max type 0

fix mynvt CO2 rigid/nvt/small molecule temp 300 300 100 mol CO2mol
  create bodies CPU = 0.001 seconds
  50 rigid bodies with 150 atoms
  1.18 = max distance from body owner to body atom
thermo 1000

run 2000

CITE-CITE-CITE-CITE-CITE-CITE-CITE-CITE-CITE-CITE-CITE-CITE-CITE

Your simulation uses code contributions which should be cited:

- Type Label Framework: https://doi.org/10.1021/acs.jpcb.3c08419

@Article{Gissinger24,
 author = {Jacob R. Gissinger, Ilia Nikiforov, Yaser Afshar, Brendon Waters, Moon-ki Choi, Daniel S. Karls, Alexander Stukowski, Wonpil Im, Hendrik Heinz, Axel Kohlmeyer, and Ellad B. Tadmor},
 title = {Type Label Framework for Bonded Force Fields in LAMMPS},
 journal = {J. Phys. Chem. B},
 year =    2024,
 volume =  128,
 number =  13,
 pages =   {3282–-3297}
}

CITE-CITE-CITE-CITE-CITE-CITE-CITE-CITE-CITE-CITE-CITE-CITE-CITE

Ewald initialization ...
  using 12-bit tables for long-range coulomb (src/kspace.cpp:342)
  G vector (1/distance) = 0.21801154
  estimated absolute RMS force accuracy = 0.0034006373
  estimated relative force accuracy = 1.0240918e-05
  KSpace vectors: actual max1d max3d = 257 5 665
                  kxmax kymax kzmax  = 5 5 5
Generated 1 of 1 mixed pair_coeff terms from geometric mixing rule
Last active /omp style is kspace_style ewald/omp
Neighbor list info ...
  update: every = 1 steps, delay = 0 steps, check = yes
  max neighbors/atom: 2000, page size: 100000
  master list distance cutoff = 14
  ghost atom cutoff = 14
  binsize = 7, bins = 4 4 4
  1 neighbor lists, perpetual/occasional/extra = 1 0 0
  (1) pair lj/cut/coul/long/omp, perpetual
      attributes: half, newton on, omp
      pair build: half/bin/newton/omp
      stencil: half/bin/3d
      bin: standard
Per MPI rank memory allocation (min/avg/max) = 26.82 | 26.82 | 26.82 Mbytes
   Step          Temp          E_pair         E_mol          TotEng         Press     
         0   0             -24.115729      0             -24.115729     -139.61173    
      1000   270.80748     -28.024535      0              38.437043      69.359993    
      2000   302.41636     -29.459348      0              44.759684      89.86941     
Loop time of 0.307647 on 8 procs for 2000 steps with 150 atoms

Performance: 561.683 ns/day, 0.043 hours/ns, 6500.960 timesteps/s, 975.144 katom-step/s
796.5% CPU use with 1 MPI tasks x 8 OpenMP threads

MPI task timing breakdown:
Section |  min time  |  avg time  |  max time  |%varavg| %total
---------------------------------------------------------------
Pair    | 0.024454   | 0.024454   | 0.024454   |   0.0 |  7.95
Bond    | 0.0084994  | 0.0084994  | 0.0084994  |   0.0 |  2.76
Kspace  | 0.15333    | 0.15333    | 0.15333    |   0.0 | 49.84
Neigh   | 0.0013381  | 0.0013381  | 0.0013381  |   0.0 |  0.43
Comm    | 0.012013   | 0.012013   | 0.012013   |   0.0 |  3.90
Output  | 2.2001e-05 | 2.2001e-05 | 2.2001e-05 |   0.0 |  0.01
Modify  | 0.10697    | 0.10697    | 0.10697    |   0.0 | 34.77
Other   |            | 0.001022   |            |       |  0.33

Nlocal:            150 ave         150 max         150 min
Histogram: 1 0 0 0 0 0 0 0 0 0
Nghost:           1372 ave        1372 max        1372 min
Histogram: 1 0 0 0 0 0 0 0 0 0
Neighs:           8049 ave        8049 max        8049 min
Histogram: 1 0 0 0 0 0 0 0 0 0

Total # of neighbors = 8049
Ave neighs/atom = 53.66
Ave special neighs/atom = 2
Neighbor list builds = 20
Dangerous builds = 0

fix fgcmc CO2 gcmc 100 ${Nattempt} 0 0 25899 300 ${mu_kcal_mol} 0.1     mol CO2mol tfac_insert ${tfac} full_energy rigid mynvt
fix fgcmc CO2 gcmc 100 100 0 0 25899 300 ${mu_kcal_mol} 0.1     mol CO2mol tfac_insert ${tfac} full_energy rigid mynvt
fix fgcmc CO2 gcmc 100 100 0 0 25899 300 -6.75649394 0.1     mol CO2mol tfac_insert ${tfac} full_energy rigid mynvt
fix fgcmc CO2 gcmc 100 100 0 0 25899 300 -6.75649394 0.1     mol CO2mol tfac_insert 1.66666666666667 full_energy rigid mynvt

variable carbon atom "type==2"
group carbon dynamic all var carbon
dynamic group carbon defined
variable nC equal count(carbon)
fix myat1 all ave/time 10 10 1000 v_nC file number_CO2.dat
variable density equal v_nC*(2*15.9994+12.011)/vol/6.022e23*(1e8)^3
fix myat2 all ave/time 10 10 1000 v_density file density_CO2.dat
compute press all pressure thermo_temp
fix myat3 all ave/time 10 100 1000 c_press file pressure_CO2.dat
thermo_style custom step temp etotal v_nC

run ${Nstep}
run 2500000
Ewald initialization ...
  using 12-bit tables for long-range coulomb (src/kspace.cpp:342)
  G vector (1/distance) = 0.21801154
  estimated absolute RMS force accuracy = 0.0034006373
  estimated relative force accuracy = 1.0240918e-05
  KSpace vectors: actual max1d max3d = 257 5 665
                  kxmax kymax kzmax  = 5 5 5
Generated 1 of 1 mixed pair_coeff terms from geometric mixing rule
Last active /omp style is kspace_style ewald/omp
0 atoms in group FixGCMC:gcmc_exclusion_group:fgcmc
0 atoms in group FixGCMC:rotation_gas_atoms:fgcmc
WARNING: Neighbor exclusions used with KSpace solver may give inconsistent Coulombic energies (src/neighbor.cpp:658)
Per MPI rank memory allocation (min/avg/max) = 26.82 | 26.82 | 26.82 Mbytes
   Step          Temp          TotEng          v_nC     
      2000   302.41636      44.759684      50           
      3000   334.00626     -56.102304      106          
      4000   314.19156     -203.03219      142          
      5000   328.08351     -335.34845      165          
      6000   306.71484     -503.86766      191          
      7000   295.11899     -642.77521      209          
      8000   308.47727     -741.85672      222          
      9000   303.66001     -800.96092      231          
     10000   275.82686     -876.3608       240          
     11000   287.61084     -926.82053      248          
     12000   305.57255     -963.79241      254          
     13000   284.39134     -1022.73        260          
     14000   320.37812     -1048.5552      266          
     15000   322.50048     -1073.2709      268          
     16000   301.40311     -1104.4823      272          
     17000   291.71815     -1135.8426      274          
     18000   299.47905     -1126.613       274          
     19000   298.8752      -1139.982       276          
     20000   273.97078     -1168.6748      278          
     21000   311.26205     -1150.4375      278          
     22000   286.33037     -1182.8721      280          
     23000   336.76991     -1164.779       281          
     24000   305.80452     -1194.5013      282          
     25000   268.51212     -1201.0791      282          
     26000   304.20622     -1192.7487      283          
     27000   298.43285     -1201.8459      284          
     28000   303.06317     -1210.8619      284          
     29000   286.7849      -1220.0791      285          
     30000   295.44958     -1230.4524      286          
     31000   303.34741     -1233.5456      287          
     32000   339.98461     -1227.0307      287          
     33000   288.06174     -1240.8123      287          
     34000   302.62156     -1259.0809      289          
     35000   361.0748      -1239.2201      289          
     36000   299.04323     -1259.0451      289          
     37000   351.04794     -1239.8106      289          
     38000   341.90883     -1241.2004      289          
     39000   303.65471     -1263.132       289          
     40000   285.67034     -1266.4766      289          
     41000   324.23486     -1256.1415      290          
     42000   303.81808     -1259.5379      290          
     43000   296.82579     -1271.353       290          
     44000   296.66696     -1274.4298      290          
     45000   322.9329      -1248.6853      290          
     46000   287.73736     -1272.8845      290          
     47000   297.81407     -1260.5774      290          
     48000   280.54282     -1278.738       290          
     49000   289.26257     -1268.0513      290          
     50000   310.00542     -1270.3369      290          
     51000   305.26572     -1263.7723      290          
     52000   300.50836     -1256.8313      290          
     53000   324.08712     -1277.9966      291          
     54000   296.65449     -1285.1582      291          
     55000   301.96611     -1273.6488      291          
     56000   328.19715     -1265.8345      291          
     57000   248.16978     -1298.5013      291          
     58000   259.50143     -1289.6795      291          
     59000   302.1879      -1276.5651      291          
     60000   307.75989     -1277.5558      291          
     61000   335.5239      -1272.0854      292          
     62000   293.14873     -1290.1789      292          
     63000   326.95707     -1274.899       292          
     64000   305.54763     -1288.6279      292          
     65000   291.07012     -1294.5544      292          
     66000   286.17508     -1298.3067      292          
     67000   283.39365     -1285.9754      292          
     68000   352.48354     -1273.8405      292          
     69000   290.08846     -1296.68        292          
     70000   294.40784     -1293.7684      293          
     71000   267.96734     -1300.404       293          
     72000   285.55007     -1298.8925      293          
     73000   308.68502     -1290.8233      293          
     74000   287.9869      -1299.1247      293          
     75000   313.60491     -1283.2573      293          
     76000   290.71778     -1303.6329      293          
     77000   261.83572     -1306.3571      293          
     78000   323.03013     -1275.629       293          
     79000   309.72988     -1297.755       293          
     80000   261.77574     -1304.5161      293          
     81000   309.13914     -1283.1981      293          
     82000   324.66912     -1286.1983      293          
     83000   280.43652     -1298.3793      293          
     84000   329.63234     -1285.9758      293          
     85000   290.8855      -1298.857       293          
     86000   298.75753     -1300.2443      293          
     87000   294.26963     -1297.6847      293          
     88000   320.20819     -1284.4857      293          
     89000   260.33844     -1317.349       293          
     90000   342.94949     -1282.5269      293          
     91000   275.095       -1304.1147      293          
     92000   310.04448     -1287.0134      293          
     93000   287.83434     -1306.9668      293          
     94000   301.64834     -1298.2313      293          
     95000   327.77273     -1282.2943      293          
     96000   288.63332     -1304.0584      293          
     97000   332.41172     -1278.3243      293          
     98000   327.04783     -1286.2371      293          
     99000   291.74695     -1306.9004      293          
    100000   303.48345     -1292.0028      293          
    101000   319.59768     -1285.4851      293          
    102000   318.32988     -1299.9686      293          
    103000   333.62835     -1289.3801      293          
    104000   292.69184     -1297.9728      293          
    105000   325.19934     -1293.6428      293          
    106000   264.98832     -1298.1861      293          
    107000   318.13053     -1298.1664      293          
    108000   313.27306     -1294.2332      293          
    109000   272.24864     -1304.643       293          
    110000   310.05867     -1300.2537      293          
    111000   298.37536     -1291.133       293          
    112000   288.08337     -1302.8097      293          
    113000   329.6185      -1272.4372      293          
    114000   282.21956     -1302.2576      293          
    115000   305.44059     -1298.1287      293          
    116000   308.2353      -1295.3897      293          
    117000   304.50163     -1288.9052      293          
    118000   302.12783     -1293.363       293          
    119000   338.7004      -1277.6441      293          
    120000   309.06758     -1294.7816      293          
    121000   281.73119     -1301.2012      293          
    122000   310.60964     -1283.2226      293          
    123000   277.69135     -1295.3539      293          
    124000   284.53436     -1301.9159      293          
    125000   310.40858     -1289.9152      293          
    126000   313.39303     -1288.5463      293          
    127000   308.47927     -1285.0425      293          
    128000   286.6128      -1299.4356      293          
    129000   282.65132     -1308.9119      293          
    130000   294.94037     -1292.7217      293          
    131000   322.7381      -1287.9479      293          
    132000   279.77997     -1302.6631      293          
    133000   312.65188     -1291.2724      293          
    134000   302.55394     -1299.3291      293          
    135000   286.47986     -1308.1139      293          
    136000   231.63115     -1325.083       293          
    137000   342.30277     -1289.6735      293          
    138000   322.29466     -1293.5183      293          
    139000   322.41756     -1290.6927      293          
    140000   302.91121     -1293.4591      293          
    141000   286.52294     -1309.7836      293          
    142000   305.62504     -1291.9055      293          
    143000   295.1671      -1303.1348      293          
    144000   307.10161     -1290.4223      293          
    145000   254.7462      -1320.2328      293          
    146000   318.57817     -1287.7433      293          
    147000   300.48948     -1310.0926      294          
    148000   342.83981     -1289.4467      294          
    149000   348.6493      -1284.4289      294          
    150000   323.49501     -1295.943       294          
    151000   275.71992     -1320.3789      294          
    152000   305.34479     -1297.639       294          
    153000   272.75061     -1307.474       294          
    154000   291.81941     -1311.0337      294          
    155000   314.33715     -1295.5581      294          
    156000   321.1787      -1300.3227      294          
    157000   258.34479     -1318.9905      294          
    158000   304.9519      -1288.2978      294          
    159000   296.87686     -1308.3928      294          
    160000   274.13334     -1316.4842      294          
    161000   321.92029     -1292.5597      294          
    162000   299.46177     -1315.6764      294          
    163000   276.59751     -1313.2502      294          
    164000   348.26225     -1290.3882      294          
    165000   299.69026     -1301.3886      294          
    166000   305.13482     -1311.818       294          
    167000   261.96454     -1324.3184      294          
    168000   266.22201     -1317.6528      294          
    169000   348.14957     -1296.1824      294          
    170000   289.97828     -1308.8351      294          
    171000   328.23834     -1286.1355      294          
    172000   301.26737     -1314.1609      294          
    173000   291.83749     -1309.1553      294          
    174000   310.40341     -1296.1961      294          
    175000   326.4329      -1295.8057      294          
    176000   300.42475     -1308.0824      294          
    177000   289.92807     -1311.2046      293          
    178000   312.55738     -1294.8533      293          
    179000   313.29626     -1288.0635      293          
    180000   335.49382     -1290.5622      293          
    181000   332.3479      -1285.6344      293          
    182000   326.85111     -1293.9909      293          
    183000   263.27042     -1315.8154      293          
    184000   313.76483     -1291.7699      293          
    185000   298.00056     -1297.7159      293          
    186000   321.06597     -1295.0455      293          
    187000   291.62539     -1302.295       293          
    188000   295.64684     -1298.0565      293          
    189000   309.29624     -1299.9629      293          
    190000   302.92653     -1304.646       293          
    191000   323.99457     -1283.9878      293          
    192000   321.56886     -1287.2045      293          
    193000   293.49531     -1299.9347      293          
    194000   319.56429     -1296.8887      293          
    195000   300.23912     -1310.2997      294          
    196000   288.9659      -1303.4753      294          
    197000   333.38809     -1295.4821      294          
    198000   291.73229     -1311.7636      294          
    199000   296.77385     -1301.7072      294          
    200000   324.74653     -1299.4523      294          
    201000   301.9212      -1311.3322      294          
    202000   341.02994     -1290.0439      294          
    203000   306.46092     -1308.2516      294          
    204000   327.04045     -1296.4721      294          
    205000   337.12077     -1287.3018      294          
    206000   312.70432     -1297.0105      294          
    207000   316.7141      -1305.3012      295          
    208000   273.14213     -1325.492       295          
    209000   308.36891     -1304.3605      295          
    210000   295.30759     -1318.6312      295          
    211000   323.3112      -1310.4181      295          
    212000   277.29955     -1330.2145      295          
    213000   320.40329     -1308.1014      295          
    214000   319.00708     -1316.3027      295          
    215000   311.01305     -1317.2356      295          
    216000   330.89869     -1300.7417      295          
    217000   290.36532     -1324.0837      295          
    218000   297.663       -1311.3678      295          
    219000   289.5846      -1325.957       295          
    220000   264.3952      -1315.3366      295          
    221000   319.17273     -1304.4941      295          
    222000   289.10317     -1322.0503      295          
    223000   272.08628     -1322.1326      295          
    224000   304.76625     -1305.1533      295          
    225000   331.55079     -1303.2181      295          
    226000   301.35497     -1315.983       295          
    227000   312.89149     -1315.6445      295          
    228000   321.63215     -1306.8423      295          
    229000   274.92344     -1334.2456      295          
    230000   338.06751     -1296.9819      295          
    231000   326.7596      -1315.1425      295          
    232000   318.46124     -1308.338       295          
    233000   295.57794     -1322.1999      295          
    234000   344.72935     -1304.9853      295          
    235000   302.76332     -1314.9949      295          
    236000   319.86684     -1312.0829      295          
    237000   275.27582     -1327.4998      295          
    238000   269.57233     -1321.1699      295          
    239000   295.33024     -1321.8224      295          
    240000   269.22319     -1324.5579      295          
    241000   331.87603     -1306.7893      295          
    242000   311.39616     -1313.5869      295          
    243000   315.54991     -1312.8282      295          
    244000   279.19096     -1328.6931      295          
    245000   285.24563     -1325.982       295          
    246000   321.35838     -1307.6338      295          
    247000   334.16199     -1314.2221      295          
    248000   268.28805     -1328.6391      295          
    249000   297.58119     -1318.8644      295          
    250000   324.23794     -1302.9991      295          
    251000   289.23418     -1314.5203      295          
    252000   280.3411      -1317.7423      295          
    253000   318.82048     -1310.637       295          
    254000   308.6938      -1317.1954      295          
    255000   323.81419     -1317.405       295          
    256000   305.2075      -1311.9922      295          
    257000   269.99379     -1332.1825      295          
    258000   284.53878     -1321.8633      295          
    259000   287.10384     -1321.521       295          
    260000   291.43244     -1327.5585      295          
    261000   279.05825     -1329.5042      295          
    262000   320.05012     -1317.1729      295          
    263000   270.14293     -1324.8403      295          
    264000   313.68427     -1311.6956      295          
    265000   282.3795      -1323.9258      295          
    266000   331.86788     -1311.4746      295          
    267000   293.39902     -1320.1615      295          
    268000   318.86482     -1323.2784      296          
    269000   327.69346     -1314.5228      296          
    270000   308.58826     -1332.7545      296          
    271000   309.72263     -1323.3212      296          
    272000   297.86973     -1336.2016      296          
    273000   290.14412     -1331.2945      296          
    274000   306.05734     -1321.6493      296          
    275000   293.76687     -1329.9721      296          
    276000   286.87796     -1329.5089      296          
    277000   315.53246     -1322.5647      296          
    278000   249.64072     -1348.4208      296          
    279000   323.83187     -1314.2159      296          
    280000   260.34056     -1339.0768      296          
    281000   318.61705     -1320.0305      296          
    282000   296.30497     -1334.4261      296          
    283000   333.1827      -1303.5592      296          
    284000   303.76577     -1339.7652      297          
    285000   289.28782     -1340.8206      297          
    286000   347.4819      -1318.498       297          
    287000   308.81326     -1339.8861      297          
    288000   297.93724     -1334.1022      297          
    289000   275.05051     -1347.2286      297          
    290000   341.41211     -1315.0174      297          
    291000   274.47108     -1347.9374      297          
    292000   301.23764     -1331.543       297          
    293000   263.24287     -1349.5433      297          
    294000   292.16433     -1344.0439      297          
    295000   300.38274     -1331.096       297          
    296000   344.0965      -1323.4691      297          
    297000   290.8538      -1343.4031      297          
    298000   279.31656     -1340.1442      297          
    299000   287.75189     -1345.8106      297          
    300000   287.91534     -1335.2725      297          
    301000   310.19996     -1339.1163      297          
    302000   306.8171      -1334.9581      297          
    303000   325.43834     -1327.3366      297          
    304000   272.39181     -1350.9191      297          
    305000   313.7146      -1332.396       297          
    306000   295.34763     -1343.4465      297          
    307000   282.00642     -1350.628       297          
    308000   301.6847      -1333.1489      297          
    309000   278.34893     -1342.4924      297          
    310000   288.5284      -1339.3895      297          
    311000   347.69136     -1327.2435      297          
    312000   341.30905     -1327.8408      297          
    313000   281.053       -1349.4728      297          
    314000   307.12238     -1330.7809      297          
    315000   300.68498     -1340.3375      297          
    316000   327.82202     -1329.13        297          
    317000   268.92829     -1354.3166      297          
    318000   308.24044     -1338.4615      297          
    319000   287.16923     -1346.3124      297          
    320000   328.23761     -1333.9936      297          
    321000   325.3485      -1335.942       297          
    322000   296.42774     -1350.7855      297          
    323000   326.15993     -1335.4024      297          
    324000   292.70839     -1337.3733      297          
    325000   334.52709     -1312.9079      297          
    326000   293.02003     -1347.4308      297          
    327000   282.06315     -1341.2701      297          
    328000   348.38892     -1322.0489      297          
    329000   306.98597     -1338.1887      297          
    330000   306.63934     -1336.8997      297          
    331000   283.0099      -1339.9219      297          
    332000   281.94353     -1344.1495      297          
    333000   325.92383     -1334.275       297          
    334000   307.70948     -1337.0827      297          
    335000   321.38467     -1339.7857      297          
    336000   281.74876     -1342.1028      297          
    337000   326.67226     -1321.7772      297          
    338000   277.63586     -1345.4032      297          
    339000   313.4881      -1336.4021      297          
    340000   265.94218     -1347.5802      297          
    341000   299.50343     -1331.3453      297          
    342000   353.23704     -1321.4984      297          
    343000   318.07878     -1339.9957      297          
    344000   339.94466     -1325.4488      297          
    345000   324.47121     -1334.985       297          
    346000   285.8305      -1353.0134      297          
    347000   279.94885     -1338.8532      297          
    348000   349.80798     -1322.7767      297          
    349000   271.82431     -1347.2398      297          
    350000   303.65803     -1340.2281      297          
    351000   326.57879     -1338.3918      297          
    352000   292.99121     -1345.2145      297          
    353000   294.58108     -1348.2508      297          
    354000   301.78545     -1344.1895      297          
    355000   293.11077     -1348.2084      297          
    356000   311.1229      -1341.1888      297          
    357000   302.2061      -1327.9441      297          
    358000   276.89417     -1354.7554      297          
    359000   311.09118     -1336.1807      297          
    360000   310.9795      -1325.3616      297          
    361000   330.29717     -1331.0196      297          
    362000   292.46623     -1346.4704      297          
    363000   289.28362     -1339.5681      297          
    364000   317.21934     -1338.0126      297          
    365000   275.6869      -1351.3905      297          
    366000   309.46351     -1328.6519      297          
    367000   291.64883     -1348.1939      297          
    368000   332.82709     -1332.0423      297          
    369000   285.19649     -1346.462       297          
    370000   312.85345     -1325.6378      297          
    371000   306.71455     -1344.4682      297          
    372000   274.43712     -1350.5699      297          
    373000   295.96473     -1343.2041      297          
    374000   352.7661      -1320.5721      297          
    375000   289.46268     -1348.0454      297          
    376000   331.01288     -1332.23        297          
    377000   301.8222      -1342.5119      297          
    378000   271.22229     -1349.6999      297          
    379000   310.7761      -1338.6552      297          
    380000   297.62194     -1339.6996      297          
    381000   311.20433     -1331.1823      297          
    382000   311.95824     -1337.6197      297          
    383000   297.41164     -1337.5035      297          
    384000   320.72038     -1333.2942      297          
    385000   348.89242     -1326.5881      297          
    386000   293.85308     -1342.8715      297          
    387000   326.87738     -1339.965       297          
    388000   276.0313      -1358.6061      297          
    389000   274.8794      -1353.4486      297          
    390000   327.82013     -1333.6199      297          
    391000   296.72396     -1347.7085      297          
    392000   275.78789     -1352.7486      297          
    393000   334.33361     -1326.1792      297          
    394000   323.94883     -1325.0543      297          
    395000   268.83352     -1352.8271      297          
    396000   292.02379     -1342.9096      297          
    397000   309.6517      -1335.878       297          
    398000   321.76821     -1332.741       297          
    399000   301.06383     -1344.44        297          
    400000   322.06619     -1332.1206      297          
    401000   323.63064     -1340.3212      297          
    402000   287.49116     -1348.1554      297          
    403000   290.89582     -1341.42        297          
    404000   325.41946     -1328.0714      297          
    405000   267.46169     -1357.3476      297          
    406000   322.24188     -1323.6033      297          
    407000   346.77069     -1330.9659      297          
    408000   271.22827     -1349.6363      297          
    409000   337.79126     -1328.7558      297          
    410000   340.20879     -1326.0393      297          
    411000   277.3775      -1352.4216      297          
    412000   303.57365     -1345.873       297          
    413000   281.31714     -1342.1133      297          
    414000   306.2423      -1342.5504      297          
    415000   277.31435     -1346.7907      297          
    416000   340.20829     -1321.2877      297          
    417000   294.74129     -1352.789       297          
    418000   278.44118     -1350.6604      297          
    419000   296.39504     -1353.2628      297          
    420000   303.71611     -1337.1197      297          
    421000   294.5996      -1350.224       297          
    422000   338.22206     -1334.2324      297          
    423000   265.68677     -1358.5748      297          
    424000   270.95242     -1357.0366      297          
    425000   323.17101     -1330.5809      297          
    426000   286.89512     -1353.6106      297          
    427000   287.74843     -1348.2207      297          
    428000   308.17695     -1352.8521      297          
    429000   255.62583     -1358.5024      297          
    430000   285.75058     -1354.6977      297          
    431000   288.44556     -1346.2745      297          
    432000   307.80244     -1340.6075      297          
    433000   320.14539     -1331.0208      297          
    434000   299.52956     -1343.9238      297          
    435000   309.90469     -1332.5823      297          
    436000   247.67748     -1366.5705      297          
    437000   284.89205     -1356.5329      297          
    438000   322.87466     -1348.0274      298          
    439000   282.1473      -1363.3119      298          
    440000   293.78116     -1350.8483      298          
    441000   332.88801     -1343.9925      298          
    442000   247.35355     -1372.8118      298          
    443000   319.73874     -1345.5452      298          
    444000   309.84876     -1348.3561      298          
    445000   300.48869     -1359.7413      298          
    446000   297.6592      -1350.8535      298          
    447000   320.45704     -1341.2127      298          
    448000   286.01591     -1363.8338      298          
    449000   349.05244     -1326.4264      298          
    450000   265.76342     -1363.7033      298          
    451000   267.40044     -1366.6946      298          
    452000   339.2027      -1342.741       299          
    453000   328.99211     -1358.2423      299          
    454000   317.01982     -1361.6021      299          
    455000   290.15937     -1362.8998      299          
    456000   334.05946     -1346           299          
    457000   280.68237     -1372.888       299          
    458000   270.70301     -1367.9787      299          
    459000   309.22662     -1365.2564      300          
    460000   295.65721     -1373.2233      300          
    461000   284.47679     -1376.2753      300          
    462000   283.74824     -1378.4273      300          
    463000   290.89976     -1367.0097      300          
    464000   283.34399     -1379.2178      300          
    465000   317.45196     -1349.9252      300          
    466000   276.17196     -1381.0204      300          
    467000   303.31844     -1372.0325      300          
    468000   321.31161     -1350.0423      300          
    469000   345.20305     -1355.4505      300          
    470000   347.47588     -1356.1951      300          
    471000   267.818       -1387.8447      300          
    472000   285.56585     -1369.0921      300          
    473000   298.37216     -1365.956       300          
    474000   273.68614     -1378.8901      300          
    475000   304.57695     -1368.8263      300          
    476000   315.40958     -1355.1943      300          
    477000   288.46156     -1377.2774      300          
    478000   321.78777     -1363.9971      300          
    479000   304.28936     -1376.2985      301          
    480000   298.54483     -1378.4967      301          
    481000   293.39257     -1380.2822      301          
    482000   324.29289     -1365.4714      301          
    483000   278.71581     -1386.532       301          
    484000   288.50724     -1378.8047      301          
    485000   305.17401     -1374.9661      301          
    486000   290.91672     -1375.8905      301          
    487000   240.23862     -1405.7319      301          
    488000   323.46109     -1369.5989      301          
    489000   259.21413     -1395.1511      301          
    490000   299.61406     -1367.4016      301          
    491000   318.6314      -1376.7727      301          
    492000   293.01182     -1376.4099      301          
    493000   323.89555     -1360.0755      301          
    494000   269.2879      -1391.9688      301          
    495000   306.63113     -1374.491       301          
    496000   282.82471     -1384.9767      301          
    497000   294.53597     -1379.9567      301          
    498000   276.61948     -1380.1716      301          
    499000   285.56372     -1389.2885      301          
    500000   308.89197     -1366.1079      301          
    501000   276.46275     -1383.7124      301          
    502000   274.71797     -1384.1694      301          
    503000   356.01507     -1358.3128      301          
    504000   304.67646     -1374.2765      301          
    505000   268.33755     -1389.3189      301          
    506000   285.48398     -1373.2903      301          
    507000   298.60364     -1378.5235      301          
    508000   311.14727     -1363.504       301          
    509000   272.29733     -1395.6418      301          
    510000   303.84194     -1372.8065      301          
    511000   276.69192     -1377.5108      301          
    512000   288.54313     -1380.812       301          
    513000   320.93167     -1361.018       301          
    514000   306.77863     -1377.5402      301          
    515000   280.4794      -1392.0599      301          
    516000   321.37591     -1365.6215      301          
    517000   319.40398     -1372.4625      301          
    518000   277.43681     -1379.0737      301          
    519000   332.09227     -1370.4427      301          
    520000   308.7499      -1379.0286      301          
    521000   312.23287     -1378.0619      301          
    522000   296.5277      -1369.441       301          
    523000   285.71347     -1391.8138      301          
    524000   310.3754      -1364.6807      301          
    525000   315.618       -1377.775       301          
    526000   274.48278     -1391.0026      301          
    527000   301.15085     -1375.871       301          
    528000   283.91359     -1392.2587      301          
    529000   340.29714     -1362.657       301          
    530000   276.90909     -1396.5717      301          
    531000   312.6478      -1370.324       301          
    532000   294.68778     -1383.181       301          
    533000   300.36349     -1375.1863      301          
    534000   312.52826     -1367.4379      301          
    535000   295.01794     -1370.6432      301          
    536000   305.4807      -1380.0921      301          
    537000   294.01841     -1384.0058      301          
    538000   352.47485     -1354.6666      301          
    539000   288.79356     -1382.1195      301          
    540000   300.66544     -1380.3818      301          
    541000   305.4555      -1379.1226      301          
    542000   281.40356     -1388.0226      301          
    543000   290.33306     -1377.6808      301          
    544000   326.7641      -1372.9574      301          
    545000   262.88413     -1392.4358      301          
    546000   313.86776     -1368.2678      301          
    547000   343.24606     -1355.5455      301          
    548000   267.14085     -1387.1782      301          
    549000   301.99818     -1379.5836      301          
    550000   287.90356     -1374.8979      301          
    551000   299.09551     -1368.8421      301          
    552000   300.89165     -1371.6747      301          
    553000   292.60266     -1381.185       301          
    554000   292.95907     -1373.4368      301          
    555000   281.54314     -1384.6039      301          
    556000   349.03341     -1362.7094      301          
    557000   277.53921     -1389.0936      301          
    558000   311.06263     -1359.4156      301          
    559000   298.47968     -1384.5725      301          
    560000   275.73488     -1379.6147      301          
    561000   332.40031     -1362.9029      301          
    562000   283.60294     -1383.4849      301          
    563000   331.41884     -1361.2643      301          
    564000   282.70805     -1387.1232      301          
    565000   334.87802     -1362.8418      301          
    566000   312.35915     -1378.2546      301          
    567000   268.08155     -1392.4049      301          
    568000   342.20169     -1363.3436      301          
    569000   290.88674     -1382.0227      301          
    570000   281.43386     -1385.1472      301          
    571000   338.84424     -1370.5783      302          
    572000   261.55634     -1406.0112      302          
    573000   312.70738     -1375.301       302          
    574000   301.72744     -1384.5527      302          
    575000   307.7347      -1386.4467      302          
    576000   265.16767     -1400.5511      302          
    577000   330.21297     -1373.7623      302          
    578000   308.07832     -1392.2532      302          
    579000   315.40507     -1376.671       302          
    580000   318.88367     -1383.8255      302          
    581000   267.46535     -1400.9594      302          
    582000   300.44003     -1381.2898      302          
    583000   288.32482     -1391.8594      302          
    584000   327.87147     -1372.8729      302          
    585000   281.06684     -1401.6561      302          
    586000   334.41485     -1365.9168      302          
    587000   277.61085     -1395.508       302          
    588000   278.76386     -1392.0022      302          
    589000   292.75867     -1386.7223      302          
    590000   291.93886     -1387.3014      302          
    591000   284.12593     -1392.7059      302          
    592000   292.3259      -1384.7566      302          
    593000   283.24549     -1396.5546      302          
    594000   353.49929     -1363.6722      302          
    595000   284.61367     -1387.1942      302          
    596000   338.59761     -1367.9687      302          
    597000   289.33412     -1393.0266      302          
    598000   333.30999     -1371.8317      302          
    599000   280.61923     -1395.5298      302          
    600000   339.81097     -1369.0867      302          
    601000   290.98438     -1393.3586      302          
    602000   314.50833     -1383.7741      302          
    603000   289.45212     -1392.4987      302          
    604000   316.18846     -1377.3709      302          
    605000   338.33712     -1371.5367      302          
    606000   339.1789      -1378.864       302          
    607000   279.75065     -1403.9073      302          
    608000   294.91943     -1378.1776      302          
    609000   266.98384     -1392.0009      302          
    610000   293.33365     -1384.25        302          
    611000   282.07545     -1393.6809      302          
    612000   292.91014     -1389.7313      302          
    613000   330.54259     -1375.4419      302          
    614000   280.63981     -1401.6329      302          
    615000   296.79789     -1389.1787      302          
    616000   330.24246     -1377.7646      302          
    617000   331.95582     -1379.8453      302          
    618000   271.51428     -1394.6662      302          
    619000   308.30595     -1378.9259      302          
    620000   343.9843      -1370.6014      302          
    621000   293.87539     -1395.2186      302          
    622000   315.14038     -1375.7023      302          
    623000   329.01378     -1373.897       302          
    624000   330.23459     -1384.5871      302          
    625000   293.8833      -1393.9674      302          
    626000   330.80337     -1371.6184      302          
    627000   297.87877     -1386.763       302          
    628000   367.4194      -1364.4495      302          
    629000   288.01702     -1397.7614      302          
    630000   311.82007     -1382.1831      302          
    631000   297.49113     -1393.2115      302          
    632000   317.43398     -1376.016       302          
    633000   317.42391     -1375.7695      302          
    634000   277.58916     -1404.1745      302          
    635000   317.76594     -1380.7225      302          
    636000   307.83812     -1383.3131      302          
    637000   337.78463     -1375.996       302          
    638000   284.38028     -1395.2618      302          
    639000   317.14542     -1371.9923      302          
    640000   337.14437     -1377.9622      302          
    641000   305.47279     -1387.7377      302          
    642000   300.62229     -1384.4187      302          
    643000   280.94685     -1383.0599      302          
    644000   307.3332      -1389.0155      302          
    645000   331.43169     -1371.7196      302          
    646000   281.55894     -1391.7042      302          
    647000   300.00032     -1381.4841      302          
    648000   274.60939     -1398.4862      302          
    649000   352.52464     -1368.0522      302          
    650000   305.96154     -1387.8964      302          
    651000   316.04943     -1380.7691      302          
    652000   272.91341     -1400.3334      302          
    653000   321.95118     -1375.1381      302          
    654000   297.48686     -1392.4907      302          
    655000   319.34188     -1375.7835      302          
    656000   327.38104     -1374.0109      302          
    657000   288.62668     -1398.2884      302          
    658000   306.58515     -1389.9874      302          
    659000   284.79664     -1399.842       302          
    660000   292.78655     -1386.2669      302          
    661000   277.04502     -1400.3627      302          
    662000   287.98379     -1390.6858      302          
    663000   265.26116     -1392.3373      302          
    664000   297.7588      -1387.3782      302          
    665000   280.00245     -1385.8625      302          
    666000   321.31481     -1378.9915      302          
    667000   338.18076     -1371.6574      302          
    668000   337.03847     -1372.2468      302          
    669000   297.56451     -1384.4063      302          
    670000   300.45657     -1393.8613      302          
    671000   271.10024     -1391.0692      302          
    672000   342.44435     -1381.2539      302          
    673000   283.82644     -1396.9002      302          
    674000   266.66506     -1404.0359      302          
    675000   315.74277     -1384.0088      302          
    676000   279.34457     -1399.2452      302          
    677000   289.96321     -1387.3449      302          
    678000   307.35862     -1391.6169      302          
    679000   320.83567     -1373.8363      302          
    680000   339.06683     -1378.3665      302          
    681000   286.75085     -1388.307       302          
    682000   291.85746     -1384.0841      302          
    683000   342.22643     -1377.4979      302          
    684000   307.02833     -1392.0244      302          
    685000   321.52339     -1371.801       302          
    686000   285.28246     -1394.899       302          
    687000   306.74206     -1388.7421      302          
    688000   312.31525     -1383.3497      302          
    689000   281.71372     -1393.715       302          
    690000   309.55876     -1384.0339      302          
    691000   324.1427      -1376.9333      302          
    692000   349.2401      -1372.3015      302          
    693000   301.75205     -1399.461       302          
    694000   305.02524     -1377.6486      302          
    695000   314.88325     -1375.1228      302          
    696000   304.30383     -1397.3399      302          
    697000   335.6275      -1370.0951      302          
    698000   345.11299     -1372.6861      302          
    699000   316.17237     -1386.1838      302          
    700000   301.24489     -1392.9141      302          
    701000   294.9986      -1386.2559      302          
    702000   341.4377      -1372.6467      302          
    703000   300.31421     -1392.7355      302          
    704000   324.01337     -1370.2648      302          
    705000   300.78854     -1393.6694      302          
    706000   392.07888     -1353.3333      302          
    707000   289.1263      -1393.5708      302          
    708000   342.58359     -1366.7887      302          
    709000   297.6583      -1393.1108      302          
    710000   306.07057     -1384.2911      302          
    711000   287.31751     -1391.133       302          
    712000   293.7665      -1400.5903      302          
    713000   303.52102     -1382.511       302          
    714000   307.47957     -1392.303       302          
    715000   275.07871     -1395.6848      302          
    716000   292.8245      -1389.7451      302          
    717000   349.14197     -1364.3133      302          
    718000   292.47952     -1388.1134      302          
    719000   267.48962     -1403.1629      302          
    720000   312.6145      -1386.8815      302          
    721000   279.02708     -1393.8895      302          
    722000   343.60145     -1373.4395      302          
    723000   275.62169     -1399.7738      302          
    724000   326.72644     -1370.7599      302          
    725000   320.93479     -1385.2527      302          
    726000   319.09336     -1375.9148      302          
    727000   310.51228     -1391.8203      302          
    728000   324.58749     -1373.673       302          
    729000   340.50808     -1383.3004      302          
    730000   315.77531     -1376.469       302          
    731000   324.80223     -1380.7218      302          
    732000   285.41574     -1399.1628      302          
    733000   317.75641     -1370.628       302          
    734000   275.63779     -1396.502       302          
    735000   301.30423     -1383.7198      302          
    736000   314.78474     -1387.6307      302          
    737000   306.74184     -1378.1403      302          
    738000   312.16259     -1383.668       302          
    739000   328.42983     -1378.7295      302          
    740000   313.2809      -1377.7328      302          
    741000   269.73527     -1404.1952      302          
    742000   301.15593     -1399.5668      302          
    743000   320.47368     -1374.3933      302          
    744000   284.15507     -1392.0042      302          
    745000   312.12766     -1375.9933      302          
    746000   313.61415     -1388.4171      302          
    747000   282.15767     -1395.0109      302          
    748000   293.7733      -1390.7921      302          
    749000   321.18463     -1373.3475      302          
    750000   283.92503     -1393.0666      302          
    751000   323.8711      -1371.7585      302          
    752000   289.41523     -1392.7097      302          
    753000   312.91392     -1375.8416      302          
    754000   328.32355     -1375.6818      302          
    755000   352.90587     -1362.4718      302          
    756000   319.01066     -1386.6831      302          
    757000   296.57269     -1394.3407      302          
    758000   307.77483     -1377.6003      302          
    759000   258.25394     -1410.7075      302          
    760000   320.1731      -1373.8315      302          
    761000   303.84263     -1388.6663      302          
    762000   296.96292     -1380.2505      302          
    763000   295.477       -1384.3566      302          
    764000   339.65796     -1369.7096      302          
    765000   327.40024     -1372.6388      302          
    766000   274.36805     -1403.1064      302          
    767000   290.32213     -1385.0771      302          
    768000   317.54127     -1374.4464      302          
    769000   299.37064     -1394.5527      302          
    770000   310.95695     -1380.5863      302          
    771000   288.06945     -1387.497       302          
    772000   311.21715     -1386.006       302          
    773000   247.25943     -1407.6369      302          
    774000   312.00382     -1384.243       302          
    775000   294.66719     -1394.4199      302          
    776000   353.31384     -1374.003       302          
    777000   292.63122     -1381.4139      302          
    778000   323.0558      -1383.6572      302          
    779000   301.9916      -1388.0046      302          
    780000   321.20798     -1377.7106      302          
    781000   342.53223     -1370.4407      302          
    782000   305.33931     -1386.5145      302          
    783000   297.50788     -1397.7523      302          
    784000   311.10232     -1386.6833      302          
    785000   284.52164     -1393.5897      302          
    786000   333.30771     -1374.6087      302          
    787000   284.18267     -1399.0936      302          
    788000   293.26474     -1387.5009      302          
    789000   339.47767     -1374.2799      302          
    790000   275.99586     -1402.2655      302          
    791000   344.04705     -1366.4726      302          
    792000   273.30267     -1397.8197      302          
    793000   286.67033     -1386.9335      302          
    794000   284.93452     -1392.6247      302          
    795000   315.85923     -1374.4872      302          
    796000   282.46116     -1399.6516      302          
    797000   296.13651     -1388.5874      302          
    798000   260.17461     -1391.2761      302          
    799000   286.37694     -1378.8953      302          
    800000   299.2638      -1386.8298      302          
    801000   273.83834     -1406.3494      302          
    802000   274.01988     -1394.9529      302          
    803000   307.12984     -1383.2238      302          
    804000   321.59087     -1378.1867      302          
    805000   322.3434      -1385.9369      302          
    806000   261.0284      -1409.2445      302          
    807000   291.81626     -1376.1559      302          
    808000   325.5412      -1387.1178      302          
    809000   276.85861     -1393.262       302          
    810000   287.86815     -1386.9146      302          
    811000   264.98479     -1400.2727      302          
    812000   308.96088     -1383.5071      302          
    813000   292.50281     -1394.1082      302          
    814000   282.15258     -1394.0573      302          
    815000   328.86804     -1376.4172      302          
    816000   279.52588     -1398.7047      302          
    817000   296.35308     -1379.8939      302          
    818000   338.74201     -1372.3065      302          
    819000   285.19253     -1392.4046      302          
    820000   284.07798     -1393.3598      302          
    821000   284.91242     -1400.2175      302          
    822000   333.99259     -1369.544       302          
    823000   285.51827     -1397.9902      302          
    824000   324.26573     -1370.5508      302          
    825000   268.98099     -1400.2227      302          
    826000   296.26577     -1386.524       302          
    827000   333.32137     -1380.9372      302          
    828000   276.07677     -1398.74        302          
    829000   288.69708     -1401.3629      302          
    830000   284.1365      -1397.97        302          
    831000   313.99091     -1385.9981      302          
    832000   282.72113     -1392.4219      302          
    833000   323.05834     -1371.5068      302          
    834000   318.299       -1379.0542      302          
    835000   280.37193     -1407.6137      302          
    836000   296.43644     -1372.1079      302          
    837000   281.33161     -1402.6331      302          
    838000   316.05942     -1377.1903      302          
    839000   293.30323     -1395.5427      302          
    840000   311.45305     -1382.9997      302          
    841000   290.30392     -1400.7078      302          
    842000   308.83053     -1389.6748      302          
    843000   314.61851     -1383.7688      302          
    844000   279.82563     -1391.5901      302          
    845000   292.56745     -1385.8408      302          
    846000   318.67314     -1380.8747      302          
    847000   287.6714      -1391.2057      302          
    848000   287.44383     -1396.9045      302          
    849000   316.94941     -1381.8503      302          
    850000   349.68947     -1375.6203      302          
    851000   299.04341     -1395.8506      302          
    852000   317.10801     -1383.4355      302          
    853000   285.73979     -1393.3796      302          
    854000   287.41333     -1388.1022      302          
    855000   308.81632     -1388.868       302          
    856000   291.07676     -1396.9085      302          
    857000   272.40105     -1398.4696      302          
    858000   331.17639     -1373.6336      302          
    859000   292.61634     -1400.5836      302          
    860000   332.78711     -1376.4072      302          
    861000   278.29393     -1395.3114      302          
    862000   275.70543     -1395.6748      302          
    863000   281.35398     -1394.8571      302          
    864000   289.07586     -1389.0393      302          
    865000   332.40815     -1384.0576      302          
    866000   286.52445     -1394.6378      302          
    867000   274.8136      -1400.8375      302          
    868000   269.59626     -1394.228       302          
    869000   349.29488     -1364.1016      302          
    870000   292.43426     -1392.6626      302          
    871000   314.7988      -1379.6621      302          
    872000   320.31645     -1381.8091      302          
    873000   260.68209     -1403.1562      302          
    874000   326.1628      -1378.7732      302          
    875000   267.23594     -1409.9103      302          
    876000   282.18776     -1399.2423      302          
    877000   309.72158     -1383.4121      302          
    878000   268.37218     -1403.1068      302          
    879000   311.35994     -1377.7645      302          
    880000   272.69081     -1397.7047      302          
    881000   366.86504     -1367.5973      302          
    882000   278.54139     -1396.1688      302          
    883000   311.43199     -1382.6474      302          
    884000   316.56806     -1378.2915      302          
    885000   311.57396     -1388.337       302          
    886000   337.10726     -1373.9962      302          
    887000   305.71657     -1383.1889      302          
    888000   272.74369     -1404.4732      302          
    889000   274.96057     -1387.2732      302          
    890000   275.30559     -1393.5429      302          
    891000   317.34142     -1382.4935      302          
    892000   273.12688     -1396.3698      302          
    893000   321.93209     -1381.4336      302          
    894000   294.75408     -1391.7466      302          
    895000   353.87565     -1368.7834      302          
    896000   303.9699      -1379.4829      302          
    897000   295.7425      -1385.166       302          
    898000   296.80142     -1390.2079      302          
    899000   323.92511     -1390.5856      302          
    900000   289.67256     -1389.4003      302          
    901000   328.95439     -1379.1751      302          
    902000   310.34083     -1390.4514      302          
    903000   327.58018     -1373.9795      302          
    904000   331.04569     -1376.0405      302          
    905000   279.76073     -1395.1534      302          
    906000   326.4106      -1375.0016      302          
    907000   299.41862     -1394.7789      302          
    908000   283.8537      -1383.291       302          
    909000   292.30416     -1394.1579      302          
    910000   312.74213     -1378.503       302          
    911000   300.68227     -1380.0764      302          
    912000   308.64087     -1388.7899      302          
    913000   295.0677      -1391.4059      302          
    914000   306.00539     -1385.3457      302          
    915000   346.44084     -1369.321       302          
    916000   299.35436     -1387.6873      302          
    917000   296.14443     -1392.8793      302          
    918000   330.8143      -1374.5334      302          
    919000   299.37045     -1389.3039      302          
    920000   325.52065     -1375.9947      302          
    921000   294.70171     -1396.5624      302          
    922000   284.15283     -1393.9981      302          
    923000   286.30621     -1392.9497      302          
    924000   324.24417     -1373.4008      302          
    925000   310.75734     -1390.2042      302          
    926000   279.93686     -1396.9832      302          
    927000   307.33282     -1383.0457      302          
    928000   260.64461     -1404.3922      302          
    929000   337.13709     -1379.3399      302          
    930000   308.06363     -1384.3186      302          
    931000   293.3078      -1382.3257      302          
    932000   303.91683     -1390.4557      302          
    933000   319.90868     -1370.3939      302          
    934000   277.11862     -1397.277       302          
    935000   309.28694     -1376.775       302          
    936000   271.77922     -1402.6024      302          
    937000   280.16632     -1385.603       302          
    938000   342.60481     -1367.5119      302          
    939000   314.60809     -1389.6         302          
    940000   286.58763     -1390.7093      302          
    941000   315.21341     -1383.6389      302          
    942000   265.96725     -1400.3228      302          
    943000   292.79147     -1383.0538      302          
    944000   331.90923     -1374.7356      302          
    945000   286.0015      -1387.7291      302          
    946000   349.94041     -1372.6144      302          
    947000   298.38016     -1385.7946      302          
    948000   312.41798     -1375.803       302          
    949000   277.46985     -1399.3226      302          
    950000   300.66522     -1375.412       302          
    951000   320.15021     -1388.5271      302          
    952000   282.61091     -1388.6316      302          
    953000   335.66839     -1374.4907      302          
    954000   329.99526     -1373.4061      302          
    955000   306.77961     -1393.8296      302          
    956000   275.16018     -1392.6372      302          
    957000   307.56559     -1380.6194      302          
    958000   324.35884     -1384.6665      302          
    959000   330.92364     -1375.9145      302          
    960000   279.78902     -1386.672       302          
    961000   300.71863     -1379.7021      302          
    962000   307.30066     -1390.7942      302          
    963000   305.28262     -1382.4462      302          
    964000   333.85818     -1378.2087      302          
    965000   273.39323     -1407.8107      302          
    966000   298.36375     -1386.1162      302          
    967000   338.93399     -1378.4745      302          
    968000   322.21415     -1383.1562      302          
    969000   296.42415     -1395.8846      302          
    970000   319.07485     -1378.8775      302          
    971000   293.53452     -1387.6283      302          
    972000   296.85367     -1388.783       302          
    973000   349.21737     -1369.3271      302          
    974000   321.23197     -1388.467       302          
    975000   273.66069     -1397.4009      302          
    976000   297.46464     -1387.1226      302          
    977000   338.83629     -1374.0804      302          
    978000   316.20162     -1380.7475      302          
    979000   330.46156     -1386.7668      302          
    980000   310.52701     -1378.7802      302          
    981000   288.82783     -1398.4701      302          
    982000   332.94701     -1374.9241      302          
    983000   279.03425     -1395.8971      302          
    984000   318.46783     -1375.3358      302          
    985000   311.55083     -1393.7926      302          
    986000   311.21999     -1383.169       302          
    987000   309.59205     -1382.6407      302          
    988000   301.63216     -1392.9976      302          
    989000   278.18383     -1402.5868      302          
    990000   331.4811      -1367.5062      302          
    991000   260.09716     -1406.297       302          
    992000   318.66621     -1379.3665      302          
    993000   300.16658     -1378.9659      302          
    994000   318.06525     -1383.86        302          
    995000   285.03555     -1390.8138      302          
    996000   303.95125     -1384.0686      302          
    997000   282.10081     -1395.6606      302          
    998000   280.08245     -1398.3035      302          
    999000   312.24169     -1386.9644      302          
   1000000   283.821       -1399.7166      302          
   1001000   289.6269      -1390.4382      302          
   1002000   317.56964     -1380.9102      302          
   1003000   294.47064     -1396.0563      302          
   1004000   321.43346     -1378.8973      302          
   1005000   292.61727     -1395.5993      302          
   1006000   343.71572     -1377.7008      302          
   1007000   328.2369      -1382.5463      302          
   1008000   308.39771     -1380.9031      302          
   1009000   304.70098     -1387.3618      302          
   1010000   331.67174     -1378.9129      302          
   1011000   310.00453     -1385.9041      302          
   1012000   265.74971     -1401.0635      302          
   1013000   261.53165     -1400.2238      302          
   1014000   299.97879     -1382.7055      302          
   1015000   297.15918     -1391.8462      302          
   1016000   268.47366     -1392.8237      302          
   1017000   336.89048     -1377.4432      302          
   1018000   296.23848     -1391.7824      302          
   1019000   323.92348     -1376.9099      302          
   1020000   287.13606     -1397.781       302          
   1021000   323.0523      -1379.4354      302          
   1022000   281.34098     -1400.8443      302          
   1023000   302.01108     -1381.9948      302          
   1024000   299.19615     -1389.4129      302          
   1025000   289.61568     -1395.4028      302          
   1026000   285.99272     -1386.6272      302          
   1027000   286.23631     -1399.6608      302          
   1028000   304.15013     -1370.7477      302          
   1029000   329.2436      -1381.443       302          
   1030000   301.99425     -1384.6764      302          
   1031000   337.02363     -1372.014       302          
   1032000   295.35204     -1382.2846      302          
   1033000   296.89671     -1396.1882      302          
   1034000   339.46953     -1367.9633      302          
   1035000   284.94732     -1397.8932      302          
   1036000   286.86904     -1390.6432      302          
   1037000   290.86135     -1391.9353      302          
   1038000   313.14679     -1378.7559      302          
   1039000   317.49553     -1384.4471      302          
   1040000   290.48291     -1395.1493      302          
   1041000   279.98742     -1388.4129      302          
   1042000   326.05062     -1386.1605      302          
   1043000   287.73732     -1399.1438      302          
   1044000   295.82628     -1386.2012      302          
   1045000   322.14238     -1384.1325      302          
   1046000   286.665       -1396.7756      302          
   1047000   335.69789     -1385.5072      302          
   1048000   292.26164     -1393.3931      302          
   1049000   307.67765     -1383.5733      302          
   1050000   312.91399     -1385.6662      302          
   1051000   276.98269     -1395.3779      302          
   1052000   315.60401     -1381.0064      302          
   1053000   296.5998      -1391.7515      302          
   1054000   296.80092     -1378.9477      302          
   1055000   313.38535     -1387.7197      302          
   1056000   333.56313     -1385.3881      302          
   1057000   288.50099     -1400.3026      302          
   1058000   302.01258     -1380.351       302          
   1059000   345.09379     -1373.218       302          
   1060000   282.98177     -1402.8893      302          
   1061000   316.6842      -1378.9452      302          
   1062000   298.13756     -1386.5954      302          
   1063000   280.71011     -1393.3098      302          
   1064000   297.45119     -1396.3332      302          
   1065000   312.97054     -1387.5315      302          
   1066000   293.97877     -1400.1527      302          
   1067000   287.53199     -1388.623       302          
   1068000   322.68237     -1383.4381      302          
   1069000   319.34736     -1375.0052      302          
   1070000   304.6648      -1390.7971      302          
   1071000   261.54655     -1400.697       302          
   1072000   335.13914     -1377.0095      302          
   1073000   320.60888     -1378.4212      302          
   1074000   318.40552     -1380.5157      302          
   1075000   320.09763     -1378.9205      302          
   1076000   334.26926     -1374.0179      302          
   1077000   255.60091     -1408.4614      302          
   1078000   310.01238     -1381.6206      302          
   1079000   293.06913     -1393.527       302          
   1080000   313.08777     -1374.0833      302          
   1081000   284.95456     -1397.5323      302          
   1082000   297.12892     -1394.1455      302          
   1083000   281.94905     -1396.6364      302          
   1084000   336.20794     -1377.6056      302          
   1085000   266.50845     -1400.5378      302          
   1086000   315.33866     -1380.4044      302          
   1087000   309.97199     -1384.9444      302          
   1088000   288.82941     -1397.1564      302          
   1089000   323.0443      -1370.6009      302          
   1090000   305.44353     -1393.1917      302          
   1091000   337.49469     -1378.9968      302          
   1092000   298.83354     -1389.3567      302          
   1093000   322.67426     -1380.6002      302          
   1094000   293.28659     -1392.0933      302          
   1095000   304.67149     -1380.4471      302          
   1096000   311.64982     -1388.9289      302          
   1097000   286.18041     -1395.9797      302          
   1098000   309.87088     -1386.621       302          
   1099000   322.46826     -1382.6794      302          
   1100000   263.07642     -1402.3889      302          
   1101000   360.90356     -1371.2754      302          
   1102000   254.43557     -1408.1805      302          
   1103000   293.52757     -1383.1558      302          
   1104000   292.55469     -1400.0715      302          
   1105000   276.48557     -1400.9712      302          
   1106000   357.69481     -1364.7344      302          
   1107000   303.79943     -1380.0867      302          
   1108000   307.02823     -1388.1472      302          
   1109000   290.19858     -1401.182       302          
   1110000   277.71352     -1401.1838      302          
   1111000   290.00163     -1384.2974      302          
   1112000   349.90941     -1369.1869      302          
   1113000   316.8495      -1384.7458      302          
   1114000   274.33535     -1394.4634      302          
   1115000   347.38376     -1366.597       302          
   1116000   300.10619     -1389.033       302          
   1117000   328.69424     -1377.535       302          
   1118000   296.57805     -1393.748       302          
   1119000   318.82187     -1386.5553      302          
   1120000   277.39168     -1407.4682      302          
   1121000   320.95112     -1375.323       302          
   1122000   303.56314     -1386.7247      302          
   1123000   305.25605     -1384.5725      302          
   1124000   314.23315     -1382.6065      302          
   1125000   308.77065     -1388.1303      302          
   1126000   256.92826     -1409.0353      302          
   1127000   305.90452     -1387.1116      302          
   1128000   334.19306     -1381.3365      302          
   1129000   310.46892     -1385.7229      302          
   1130000   296.75097     -1390.6058      302          
   1131000   309.89573     -1387.3619      302          
   1132000   284.8189      -1396.2846      302          
   1133000   300.09209     -1380.1291      302          
   1134000   324.3739      -1374.7018      302          
   1135000   272.06344     -1400.9197      302          
   1136000   281.62561     -1394.3003      302          
   1137000   278.75597     -1389.4291      302          
   1138000   298.8028      -1388.4383      302          
   1139000   293.07848     -1395.9825      302          
   1140000   325.36117     -1382.0754      302          
   1141000   294.57164     -1394.9817      302          
   1142000   287.61973     -1389.2932      302          
   1143000   358.82351     -1366.6179      302          
   1144000   252.37393     -1410.7137      302          
   1145000   304.62252     -1381.4721      302          
   1146000   295.75409     -1392.9332      302          
   1147000   318.24928     -1388.3094      302          
   1148000   307.7312      -1377.9575      302          
   1149000   338.70194     -1369.7392      302          
   1150000   293.79514     -1394.4164      302          
   1151000   298.29722     -1382.0827      302          
   1152000   331.8056      -1382.7451      302          
   1153000   319.17863     -1377.6269      302          
   1154000   281.33719     -1394.8184      302          
   1155000   321.29776     -1378.3818      302          
   1156000   274.65089     -1401.1011      302          
   1157000   276.15304     -1391.6966      302          
   1158000   287.31747     -1397.8318      302          
   1159000   354.58462     -1367.9015      302          
   1160000   302.73415     -1392.699       302          
   1161000   288.53356     -1390.488       302          
   1162000   331.99453     -1370.8779      302          
   1163000   271.74432     -1401.1672      302          
   1164000   335.00964     -1378.8831      302          
   1165000   288.21876     -1397.0511      302          
   1166000   321.11113     -1376.3264      302          
   1167000   279.17664     -1398.8211      302          
   1168000   321.18847     -1372.7258      302          
   1169000   286.74521     -1398.4295      302          
   1170000   321.8223      -1384.7206      302          
   1171000   288.67139     -1392.1891      302          
   1172000   291.58059     -1395.1178      302          
   1173000   323.70801     -1374.4897      302          
   1174000   283.86593     -1402.3859      302          
   1175000   306.37925     -1380.0175      302          
   1176000   327.89759     -1380.8825      302          
   1177000   309.11422     -1382.9784      302          
   1178000   321.00318     -1386.0382      302          
   1179000   307.83055     -1374.7088      302          
   1180000   302.02599     -1395.3631      302          
   1181000   301.34896     -1392.1667      302          
   1182000   341.094       -1372.6567      302          
   1183000   281.92588     -1394.3126      302          
   1184000   333.90739     -1368.1227      302          
   1185000   339.11826     -1382.7142      302          
   1186000   291.2481      -1401.0569      302          
   1187000   335.42717     -1372.0652      302          
   1188000   322.13639     -1383.866       302          
   1189000   289.74583     -1392.0675      302          
   1190000   284.46376     -1399.749       302          
   1191000   334.3827      -1381.2407      302          
   1192000   286.94708     -1395.5248      302          
   1193000   316.76406     -1388.7643      302          
   1194000   260.12628     -1400.1824      302          
   1195000   290.30695     -1393.3578      302          
   1196000   314.84517     -1375.243       302          
   1197000   321.9643      -1379.9262      302          
   1198000   315.74072     -1388.3634      302          
   1199000   302.57672     -1393.0207      302          
   1200000   325.80554     -1380.3731      302          
   1201000   300.49515     -1394.2811      302          
   1202000   294.6387      -1386.7675      302          
   1203000   284.42563     -1392.8052      302          
   1204000   301.30055     -1389.7534      302          
   1205000   292.14599     -1398.3749      302          
   1206000   277.17091     -1394.2081      302          
   1207000   331.69275     -1372.1252      302          
   1208000   315.63179     -1387.8529      302          
   1209000   265.71142     -1403.0719      302          
   1210000   308.31046     -1380.5107      302          
   1211000   354.03677     -1372.2999      302          
   1212000   292.11102     -1397.2414      302          
   1213000   323.44424     -1377.9137      302          
   1214000   295.40074     -1392.1578      302          
   1215000   276.36265     -1399.6065      302          
   1216000   297.93528     -1382.3473      302          
   1217000   310.78049     -1380.8487      302          
   1218000   271.88555     -1402.1353      302          
   1219000   312.12809     -1387.0756      302          
   1220000   272.03701     -1402.0085      302          
   1221000   320.39313     -1374.9615      302          
   1222000   320.31429     -1375.8276      302          
   1223000   263.72696     -1399.8263      302          
   1224000   306.34612     -1379.7102      302          
   1225000   265.6638      -1401.3853      302          
   1226000   299.4449      -1385.5805      302          
   1227000   330.71996     -1371.9519      302          
   1228000   300.75793     -1388.8273      302          
   1229000   280.76197     -1399.7174      302          
   1230000   375.64275     -1363.6768      302          
   1231000   280.25087     -1397.4251      302          
   1232000   319.21338     -1377.1245      302          
   1233000   286.95542     -1389.3087      302          
   1234000   320.5784      -1372.8274      302          
   1235000   286.85973     -1393.9433      302          
   1236000   331.37673     -1380.1578      302          
   1237000   308.13912     -1392.013       302          
   1238000   289.78469     -1393.7025      302          
   1239000   301.16608     -1385.8319      302          
   1240000   303.65055     -1378.0477      302          
   1241000   289.63921     -1393.0628      302          
   1242000   312.80634     -1385.4737      302          
   1243000   266.00988     -1401.8633      302          
   1244000   321.38187     -1379.7577      302          
   1245000   292.4215      -1393.0241      302          
   1246000   290.96323     -1393.6776      302          
   1247000   334.34555     -1371.7534      302          
   1248000   278.38608     -1401.3245      302          
   1249000   286.69853     -1387.4401      302          
   1250000   274.04094     -1404.2268      302          
   1251000   300.31599     -1378.3293      302          
   1252000   313.69696     -1382.734       302          
   1253000   284.84955     -1387.5563      302          
   1254000   314.30668     -1386.2082      302          
   1255000   342.13635     -1368.2176      302          
   1256000   313.78683     -1373.9126      302          
   1257000   295.85207     -1393.9102      302          
   1258000   341.96782     -1370.0607      302          
   1259000   299.70348     -1390.6913      302          
   1260000   304.15698     -1380.2339      302          
   1261000   318.86872     -1380.5459      302          
   1262000   279.5298      -1396.454       302          
   1263000   344.76025     -1367.282       302          
   1264000   281.49575     -1398.0915      302          
   1265000   307.31292     -1381.9074      302          
   1266000   304.57566     -1387.6118      302          
   1267000   261.74559     -1405.2984      302          
   1268000   319.28059     -1374.5764      302          
   1269000   280.12462     -1398.6204      302          
   1270000   305.53206     -1381.8104      302          
[...]
   2175000   295.49622     -1401.9061      303          
   2176000   294.58959     -1406.1082      303          
   2177000   282.12686     -1406.2914      303          
   2178000   329.77622     -1374.1054      303          
   2179000   337.7954      -1388.747       303          
   2180000   349.22389     -1382.1367      303          
   2181000   272.52404     -1408.7518      303          
   2182000   261.47833     -1404.5178      303          
   2183000   293.97327     -1396.8791      303          
   2184000   299.21913     -1393.6834      303          
   2185000   281.7649      -1405.6939      303          
   2186000   281.10193     -1403.543       303          
   2187000   296.35334     -1395.2815      303          
   2188000   351.97795     -1376.2603      303          
   2189000   295.97412     -1406.8672      303          
   2190000   296.63369     -1392.6094      303          
   2191000   316.36918     -1396.9978      303          
   2192000   276.03224     -1404.7994      303          
   2193000   350.62353     -1384.3364      303          
   2194000   275.18355     -1407.8596      303          
   2195000   310.72473     -1380.3073      303          
   2196000   294.15464     -1400.8756      303          
   2197000   299.91116     -1387.1359      303          
   2198000   320.32616     -1385.3381      303          
   2199000   290.95444     -1394.3677      303          
   2200000   288.0748      -1410.3648      303          
   2201000   288.14389     -1388.171       303          
   2202000   289.16579     -1406.2523      303          
   2203000   326.80789     -1385.0096      303          
   2204000   299.78639     -1391.5958      303          
   2205000   319.1311      -1398.3553      303          
   2206000   269.30743     -1413.3644      303          
   2207000   307.33266     -1396.686       303          
   2208000   323.03118     -1384.6275      303          
   2209000   341.61853     -1382.6569      303          
   2210000   291.10617     -1403.9798      303          
   2211000   281.93618     -1401.5463      303          
   2212000   316.71055     -1385.6791      303          
   2213000   299.34977     -1402.6149      303          
   2214000   300.8274      -1386.1941      303          
   2215000   341.40333     -1382.5914      303          
   2216000   301.71151     -1402.9456      303          
   2217000   286.12133     -1397.3951      303          
   2218000   332.13322     -1393.6538      303          
   2219000   308.63911     -1386.6281      303          
   2220000   296.75461     -1404.1992      303          
   2221000   344.30916     -1374.852       303          
   2222000   312.51061     -1399.222       303          
   2223000   267.13512     -1404.5723      303          
   2224000   304.28499     -1388.9407      303          
   2225000   327.57571     -1385.0496      303          
   2226000   276.90069     -1404.776       303          
   2227000   275.27978     -1402.4429      303          
   2228000   334.26375     -1385.0312      303          
   2229000   309.21147     -1390.9512      303          
   2230000   293.74378     -1403.3361      303          
   2231000   286.66331     -1399.9483      303          
   2232000   335.98719     -1376.2847      303          
   2233000   287.04897     -1403.2289      303          
   2234000   319.68635     -1380.5984      303          
   2235000   290.2142      -1399.1546      303          
   2236000   258.04271     -1412.129       303          
   2237000   269.98286     -1402.7077      303          
   2238000   336.29745     -1390.3899      303          
   2239000   269.73457     -1411.1473      303          
   2240000   322.9183      -1374.9434      303          
   2241000   308.69937     -1400.2722      303          
   2242000   293.01868     -1404.5556      303          
   2243000   363.15984     -1371.0578      303          
   2244000   300.86775     -1400.9225      303          
   2245000   320.15266     -1391.8567      303          
   2246000   329.56702     -1392.1217      303          
   2247000   327.34012     -1385.0692      303          
   2248000   258.17841     -1408.7799      303          
   2249000   304.10836     -1403.2416      303          
   2250000   287.24101     -1400.537       303          
   2251000   312.79011     -1390.7901      303          
   2252000   344.39212     -1379.5617      303          
   2253000   308.95513     -1399.8008      303          
   2254000   288.35307     -1404.6366      303          
   2255000   262.62975     -1409.5354      303          
   2256000   294.95832     -1399.542       303          
   2257000   268.21037     -1410.8981      303          
   2258000   299.26208     -1395.6957      303          
   2259000   286.62348     -1403.6075      303          
   2260000   271.91643     -1408.3986      303          
   2261000   285.65721     -1399.4727      303          
   2262000   315.06622     -1390.201       303          
   2263000   305.59459     -1389.1375      303          
   2264000   264.38638     -1408.371       303          
   2265000   292.22877     -1387.841       303          
   2266000   290.85968     -1401.1874      303          
   2267000   303.02711     -1395.3979      303          
   2268000   337.60677     -1387.1453      303          
   2269000   293.04197     -1403.3569      303          
   2270000   316.97734     -1394.4541      303          
   2271000   276.74656     -1407.8078      303          
   2272000   326.54367     -1390.474       303          
   2273000   300.26765     -1387.0105      303          
   2274000   286.07632     -1408.677       303          
   2275000   301.97825     -1399.5038      303          
   2276000   309.38303     -1382.2688      303          
   2277000   290.86391     -1404.7863      303          
   2278000   289.89462     -1399.534       303          
   2279000   266.11831     -1409.891       303          
   2280000   311.22341     -1390.8163      303          
   2281000   298.75865     -1397.0426      303          
   2282000   307.39809     -1391.5537      303          
   2283000   365.35018     -1373.9868      303          
   2284000   307.11345     -1387.0471      303          
   2285000   289.20348     -1409.0379      303          
   2286000   319.77221     -1383.6505      303          
   2287000   311.12813     -1399.449       303          
   2288000   320.25407     -1387.9239      303          
   2289000   296.57465     -1397.5487      303          
   2290000   304.82775     -1395.7059      303          
   2291000   320.1407      -1385.5145      303          
   2292000   292.51552     -1404.8119      303          
   2293000   303.96235     -1393.7594      303          
   2294000   277.90944     -1401.5237      303          
   2295000   314.80922     -1387.0917      303          
   2296000   300.67505     -1401.0168      303          
   2297000   278.86424     -1404.0671      303          
   2298000   327.5995      -1391.4349      303          
   2299000   288.83671     -1399.5831      303          
   2300000   330.72906     -1379.8436      303          
   2301000   306.3705      -1400.8495      303          
   2302000   297.89507     -1402.546       303          
   2303000   340.43173     -1381.6875      303          
   2304000   284.33684     -1411.3529      303          
   2305000   302.08007     -1398.1488      303          
   2306000   316.41693     -1390.7589      303          
   2307000   333.20736     -1380.9438      303          
   2308000   299.35991     -1400.6116      303          
   2309000   299.26599     -1401.7923      303          
   2310000   331.98877     -1387.1215      303          
   2311000   293.293       -1400.9337      303          
   2312000   286.82804     -1401.4922      303          
   2313000   342.51449     -1382.5805      303          
   2314000   295.07128     -1401.4461      303          
   2315000   327.58377     -1384.5556      303          
   2316000   301.72824     -1400.6986      303          
   2317000   339.42611     -1379.4833      303          
   2318000   305.30576     -1400.8228      303          
   2319000   300.83623     -1393.1724      303          
   2320000   344.70855     -1385.4961      303          
   2321000   290.9066      -1405.108       303          
   2322000   296.35797     -1395.308       303          
   2323000   319.50275     -1391.0691      303          
   2324000   316.23454     -1388.961       303          
   2325000   300.01795     -1401.5252      303          
   2326000   308.40877     -1385.1153      303          
   2327000   296.29177     -1396.4313      303          
   2328000   232.9061      -1430.6123      303          
   2329000   325.57401     -1381.3709      303          
   2330000   296.68077     -1401.3043      303          
   2331000   283.88534     -1406.9594      303          
   2332000   283.05578     -1399.1221      303          
   2333000   326.56422     -1378.2473      303          
   2334000   318.98021     -1398.1439      303          
   2335000   300.74252     -1401.5068      303          
   2336000   308.76041     -1391.1864      303          
   2337000   291.68335     -1398.7485      303          
   2338000   343.26434     -1388.0441      303          
   2339000   290.49322     -1410.8172      303          
   2340000   341.18819     -1390.3981      303          
   2341000   265.70807     -1412.3275      303          
   2342000   286.5382      -1402.0186      303          
   2343000   295.44738     -1402.2433      303          
   2344000   321.37872     -1380.3812      303          
   2345000   311.40157     -1401.9697      303          
   2346000   344.74157     -1384.984       303          
   2347000   297.61196     -1399.3752      303          
   2348000   308.3864      -1392.0675      303          
   2349000   286.52241     -1395.7864      303          
   2350000   318.03591     -1392.4321      303          
   2351000   299.36634     -1401.9647      303          
   2352000   286.63726     -1391.4147      303          
   2353000   311.89226     -1400.9405      303          
   2354000   292.0104      -1396.2546      303          
   2355000   329.8046      -1392.7334      303          
   2356000   310.30871     -1386.3592      303          
   2357000   307.25506     -1391.0661      303          
   2358000   258.07012     -1418.0322      303          
   2359000   318.43298     -1385.2834      303          
   2360000   318.32906     -1391.296       303          
   2361000   319.01532     -1397.6113      303          
   2362000   281.58053     -1399.3188      303          
   2363000   303.46368     -1401.1954      303          
   2364000   324.0143      -1383.0875      303          
   2365000   301.28655     -1393.8745      303          
   2366000   296.46538     -1402.3751      303          
   2367000   308.27949     -1387.8073      303          
   2368000   305.57737     -1387.057       303          
   2369000   316.76612     -1397.7394      303          
   2370000   332.75839     -1387.8667      303          
   2371000   349.30335     -1378.1334      303          
   2372000   320.53962     -1392.5914      303          
   2373000   308.5787      -1394.6559      303          
   2374000   302.21777     -1394.0192      303          
   2375000   348.55885     -1381.137       303          
   2376000   282.64808     -1399.5839      303          
   2377000   312.82791     -1385.6765      303          
   2378000   286.70672     -1402.7853      303          
   2379000   351.76625     -1375.7223      303          
   2380000   276.79915     -1402.9814      303          
   2381000   273.84839     -1404.5932      303          
   2382000   282.03885     -1401.3457      303          
   2383000   309.90882     -1394.3065      303          
   2384000   297.79991     -1396.0698      303          
   2385000   273.82761     -1398.0352      303          
   2386000   312.55559     -1400.8696      303          
   2387000   339.40445     -1379.2642      303          
   2388000   311.51455     -1396.5474      303          
   2389000   260.13418     -1404.0138      303          
   2390000   338.42058     -1382.0747      303          
   2391000   300.1474      -1400.8831      303          
   2392000   312.85421     -1392.4193      303          
   2393000   291.03082     -1400.1959      303          
   2394000   334.5787      -1386.4509      303          
   2395000   329.04035     -1382.3062      303          
   2396000   279.94174     -1407.5318      303          
   2397000   293.40634     -1396.4239      303          
   2398000   300.18526     -1396.7464      303          
   2399000   296.654       -1399.9153      303          
   2400000   293.63208     -1402.2853      303          
   2401000   322.69192     -1390.0837      303          
   2402000   301.42231     -1405.51        303          
   2403000   323.63244     -1387.7777      303          
   2404000   303.55034     -1400.6686      303          
   2405000   286.79032     -1403.2012      303          
   2406000   282.25104     -1399.4331      303          
   2407000   327.94808     -1383.4296      303          
   2408000   295.8586      -1404.9306      303          
   2409000   310.03379     -1388.7288      303          
   2410000   355.33813     -1377.0362      303          
   2411000   318.46724     -1394.9276      303          
   2412000   300.85959     -1401.0972      303          
   2413000   331.32518     -1384.4771      303          
   2414000   296.37139     -1393.3019      303          
   2415000   312.06971     -1387.7469      303          
   2416000   303.56634     -1398.5413      303          
   2417000   328.00717     -1389.9696      303          
   2418000   327.95756     -1382.8593      303          
   2419000   266.10041     -1414.3391      303          
   2420000   305.22949     -1392.2227      303          
   2421000   362.22011     -1376.7623      303          
   2422000   282.55833     -1400.6785      303          
   2423000   286.21252     -1403.5784      303          
   2424000   320.82763     -1388.5362      303          
   2425000   303.28343     -1404.1277      303          
   2426000   322.25199     -1376.7334      303          
   2427000   335.96661     -1383.5796      303          
   2428000   326.97664     -1392.8268      303          
   2429000   278.96274     -1400.783       303          
   2430000   287.70757     -1403.5194      303          
   2431000   293.6713      -1403.3746      303          
   2432000   275.26763     -1406.9393      303          
   2433000   340.45864     -1376.8511      303          
   2434000   301.71696     -1401.53        303          
   2435000   279.53363     -1405.3363      303          
   2436000   351.64796     -1381.5809      303          
   2437000   303.44638     -1398.5302      303          
   2438000   332.82872     -1387.1061      303          
   2439000   254.31626     -1417.6396      303          
   2440000   259.71682     -1408.4995      303          
   2441000   284.59855     -1402.5811      303          
   2442000   300.83669     -1389.2266      303          
   2443000   315.9719      -1391.7429      303          
   2444000   279.13775     -1402.0649      303          
   2445000   278.01168     -1406.2921      303          
   2446000   296.27555     -1388.7943      303          
   2447000   315.23172     -1386.6245      303          
   2448000   320.62883     -1390.4178      303          
   2449000   312.51412     -1395.2652      303          
   2450000   263.90799     -1406.8555      303          
   2451000   332.76287     -1383.5022      303          
   2452000   288.98825     -1410.0745      303          
   2453000   277.43413     -1401.4825      303          
   2454000   311.21216     -1397.8082      303          
   2455000   305.29455     -1397.9085      303          
   2456000   304.15972     -1399.992       303          
   2457000   323.37845     -1373.2617      303          
   2458000   273.93429     -1414.0711      303          
   2459000   312.44163     -1391.9311      303          
   2460000   302.31844     -1395.1066      303          
   2461000   329.77067     -1380.4416      303          
   2462000   283.82483     -1403.8357      303          
   2463000   292.06582     -1406.7472      303          
   2464000   302.31268     -1389.7299      303          
   2465000   322.89396     -1381.8834      303          
   2466000   349.24266     -1365.7262      303          
   2467000   316.36615     -1400.2912      303          
   2468000   282.42936     -1403.6896      303          
   2469000   329.90164     -1385.3393      303          
   2470000   316.55002     -1385.6179      303          
   2471000   272.12655     -1412.7175      303          
   2472000   353.62903     -1371.2931      303          
   2473000   310.14803     -1390.968       303          
   2474000   290.33531     -1410.3688      303          
   2475000   344.56031     -1378.6427      303          
   2476000   267.33843     -1407.734       303          
   2477000   298.33796     -1389.5572      303          
   2478000   270.91705     -1406.7543      303          
   2479000   308.39267     -1382.254       303          
   2480000   281.8665      -1411.7007      303          
   2481000   332.88108     -1384.3826      303          
   2482000   282.17475     -1397.2659      303          
   2483000   291.93026     -1407.2912      303          
   2484000   306.5153      -1392.7175      303          
   2485000   320.34908     -1389.3815      303          
   2486000   308.20477     -1393.2303      303          
   2487000   298.67688     -1385.4298      303          
   2488000   316.76647     -1393.4379      303          
   2489000   269.37311     -1410.9867      303          
   2490000   285.65902     -1404.0991      303          
   2491000   286.99184     -1406.4927      303          
   2492000   320.50357     -1384.6242      303          
   2493000   275.10266     -1405.734       303          
   2494000   283.22598     -1405.0787      303          
   2495000   326.44793     -1381.7268      303          
   2496000   277.8916      -1408.4934      303          
   2497000   284.55701     -1400.0654      303          
   2498000   281.44332     -1406.7459      303          
   2499000   332.3621      -1385.0393      303          
   2500000   310.08746     -1402.7351      303          
   2501000   268.97519     -1409.8693      303          
   2502000   317.88128     -1383.3987      303          
Loop time of 13209.7 on 8 procs for 2500000 steps with 909 atoms

Performance: 16.352 ns/day, 1.468 hours/ns, 189.255 timesteps/s, 172.033 katom-step/s
799.9% CPU use with 1 MPI tasks x 8 OpenMP threads

MPI task timing breakdown:
Section |  min time  |  avg time  |  max time  |%varavg| %total
---------------------------------------------------------------
Pair    | 1249.2     | 1249.2     | 1249.2     |   0.0 |  9.46
Bond    | 16.895     | 16.895     | 16.895     |   0.0 |  0.13
Kspace  | 593.77     | 593.77     | 593.77     |   0.0 |  4.49
Neigh   | 58.898     | 58.898     | 58.898     |   0.0 |  0.45
Comm    | 90.87      | 90.87      | 90.87      |   0.0 |  0.69
Output  | 0.068805   | 0.068805   | 0.068805   |   0.0 |  0.00
Modify  | 11195      | 11195      | 11195      |   0.0 | 84.74
Other   |            | 5.481      |            |       |  0.04

Nlocal:            909 ave         909 max         909 min
Histogram: 1 0 0 0 0 0 0 0 0 0
Nghost:           7859 ave        7859 max        7859 min
Histogram: 1 0 0 0 0 0 0 0 0 0
Neighs:         303828 ave      303828 max      303828 min
Histogram: 1 0 0 0 0 0 0 0 0 0

Total # of neighbors = 303828
Ave neighs/atom = 334.24422
Ave special neighs/atom = 2
Neighbor list builds = 2550030
Dangerous builds = 0
Total wall time: 3:40:10
