LAMMPS (27 Jun 2024)
  using 8 OpenMP thread(s) per MPI task
package omp 0
using multi-threaded neighbor list subroutines
# LAMMPS input script by Simon Gravelle
# For LAMMPS tutorials, see https://lammpstutorials.github.io
# Last tested using the 27Jun2024 LAMMPS version

variable Nstep equal 2500000
variable mu_K equal -4400
variable mu_kcal_mol equal ${mu_K}*0.0019872041
variable mu_kcal_mol equal -4400*0.0019872041
print "mu equal ${mu_kcal_mol}"
mu equal -8.74369804
variable tfac equal 5.0/3.0
variable Nattempt equal 10

units real
boundary p p p
atom_style full
pair_style lj/cut/coul/long 12
kspace_style ewald 1.0e-5
bond_style harmonic
angle_style harmonic
pair_modify mix geometric
special_bonds lj 0.0 0.0 0.0 coul 0.0 0.0 0.0 angle yes

read_data box.data
Reading data file ...
  orthogonal box = (-25 -25 -25) to (25 25 25)
  1 by 1 by 1 MPI processor grid
  reading atom labelmap ...
  reading bond labelmap ...
  reading angle labelmap ...
  reading atoms ...
  150 atoms
  reading velocities ...
  150 velocities
  scanning bonds ...
  1 = max bonds/atom
  scanning angles ...
  1 = max angles/atom
  orthogonal box = (-25 -25 -25) to (25 25 25)
  1 by 1 by 1 MPI processor grid
  reading bonds ...
  100 bonds
  reading angles ...
  50 angles
Finding 1-2 1-3 1-4 neighbors ...
  special bond factors lj:    0        0        0       
  special bond factors coul:  0        0        0       
     2 = max # of 1-2 neighbors
     1 = max # of 1-3 neighbors
     1 = max # of 1-4 neighbors
  100 = # of 1-3 neighbors before angle trim
  100 = # of 1-3 neighbors after angle trim
     2 = max # of special neighbors
  special bonds CPU = 0.000 seconds
  read_data CPU = 0.015 seconds
labelmap atom 1 O 2 C
labelmap bond 1 C-O
labelmap angle 1 O-C-O

group CO2 type C O
150 atoms in group CO2
include parm.lmp
# LAMMPS parameter file for H2O SPCE water model
# For conversion from K to kcal / mol, multiply
# by Boltzmann = 0.0019872041 kcal / (mol * K)

mass O 15.9994
mass C 12.0110

pair_coeff O O 0.164858 3.011
pair_coeff C C 0.05894 2.789

bond_coeff C-O 0.0 1.18 # rigid

angle_coeff O-C-O 0.0 180.0 # rigid

molecule CO2mol CO2.mol
Read molecule template CO2mol:
# LAMMPS molecule file for carbondioxide
  1 molecules
  0 fragments
  3 atoms with max type 2
  2 bonds with max type 1
  1 angles with max type 1
  0 dihedrals with max type 0
  0 impropers with max type 0

fix mynvt CO2 rigid/nvt/small molecule temp 300 300 100 mol CO2mol
  create bodies CPU = 0.000 seconds
  50 rigid bodies with 150 atoms
  1.18 = max distance from body owner to body atom
thermo 1000

run 2000

CITE-CITE-CITE-CITE-CITE-CITE-CITE-CITE-CITE-CITE-CITE-CITE-CITE

Your simulation uses code contributions which should be cited:

- Type Label Framework: https://doi.org/10.1021/acs.jpcb.3c08419

@Article{Gissinger24,
 author = {Jacob R. Gissinger, Ilia Nikiforov, Yaser Afshar, Brendon Waters, Moon-ki Choi, Daniel S. Karls, Alexander Stukowski, Wonpil Im, Hendrik Heinz, Axel Kohlmeyer, and Ellad B. Tadmor},
 title = {Type Label Framework for Bonded Force Fields in LAMMPS},
 journal = {J. Phys. Chem. B},
 year =    2024,
 volume =  128,
 number =  13,
 pages =   {3282–-3297}
}

CITE-CITE-CITE-CITE-CITE-CITE-CITE-CITE-CITE-CITE-CITE-CITE-CITE

Ewald initialization ...
  using 12-bit tables for long-range coulomb (src/kspace.cpp:342)
  G vector (1/distance) = 0.20077039
  estimated absolute RMS force accuracy = 0.0039018044
  estimated relative force accuracy = 1.1750168e-05
  KSpace vectors: actual max1d max3d = 1054 8 2456
                  kxmax kymax kzmax  = 8 8 8
Generated 1 of 1 mixed pair_coeff terms from geometric mixing rule
Last active /omp style is kspace_style ewald/omp
Neighbor list info ...
  update: every = 1 steps, delay = 0 steps, check = yes
  max neighbors/atom: 2000, page size: 100000
  master list distance cutoff = 14
  ghost atom cutoff = 14
  binsize = 7, bins = 8 8 8
  1 neighbor lists, perpetual/occasional/extra = 1 0 0
  (1) pair lj/cut/coul/long/omp, perpetual
      attributes: half, newton on, omp
      pair build: half/bin/newton/omp
      stencil: half/bin/3d
      bin: standard
Per MPI rank memory allocation (min/avg/max) = 31.23 | 31.23 | 31.23 Mbytes
   Step          Temp          E_pair         E_mol          TotEng         Press     
         0   0             -1.3802283      0             -1.3802283     -1.9091073    
      1000   244.97829     -2.8147982      0              57.307781      2.9372644    
      2000   217.84894     -2.3855577      0              51.078935      19.431984    
Loop time of 0.613147 on 8 procs for 2000 steps with 150 atoms

Performance: 281.825 ns/day, 0.085 hours/ns, 3261.861 timesteps/s, 489.279 katom-step/s
796.5% CPU use with 1 MPI tasks x 8 OpenMP threads

MPI task timing breakdown:
Section |  min time  |  avg time  |  max time  |%varavg| %total
---------------------------------------------------------------
Pair    | 0.0096545  | 0.0096545  | 0.0096545  |   0.0 |  1.57
Bond    | 0.0094057  | 0.0094057  | 0.0094057  |   0.0 |  1.53
Kspace  | 0.51558    | 0.51558    | 0.51558    |   0.0 | 84.09
Neigh   | 0.00078809 | 0.00078809 | 0.00078809 |   0.0 |  0.13
Comm    | 0.0054626  | 0.0054626  | 0.0054626  |   0.0 |  0.89
Output  | 2.4289e-05 | 2.4289e-05 | 2.4289e-05 |   0.0 |  0.00
Modify  | 0.071056   | 0.071056   | 0.071056   |   0.0 | 11.59
Other   |            | 0.001179   |            |       |  0.19

Nlocal:            150 ave         150 max         150 min
Histogram: 1 0 0 0 0 0 0 0 0 0
Nghost:            444 ave         444 max         444 min
Histogram: 1 0 0 0 0 0 0 0 0 0
Neighs:           1106 ave        1106 max        1106 min
Histogram: 1 0 0 0 0 0 0 0 0 0

Total # of neighbors = 1106
Ave neighs/atom = 7.3733333
Ave special neighs/atom = 2
Neighbor list builds = 27
Dangerous builds = 0

fix fgcmc CO2 gcmc 100 ${Nattempt} 0 0 25899 300 ${mu_kcal_mol} 0.1     mol CO2mol tfac_insert ${tfac} full_energy rigid mynvt
fix fgcmc CO2 gcmc 100 10 0 0 25899 300 ${mu_kcal_mol} 0.1     mol CO2mol tfac_insert ${tfac} full_energy rigid mynvt
fix fgcmc CO2 gcmc 100 10 0 0 25899 300 -8.74369804 0.1     mol CO2mol tfac_insert ${tfac} full_energy rigid mynvt
fix fgcmc CO2 gcmc 100 10 0 0 25899 300 -8.74369804 0.1     mol CO2mol tfac_insert 1.66666666666667 full_energy rigid mynvt

variable carbon atom "type==2"
group carbon dynamic all var carbon
dynamic group carbon defined
variable nC equal count(carbon)
fix myat1 all ave/time 10 10 1000 v_nC file number_CO2.dat
variable density equal v_nC*(2*15.9994+12.011)/vol/6.022e23*(1e8)^3
fix myat2 all ave/time 10 10 1000 v_density file density_CO2.dat
compute press all pressure thermo_temp
fix myat3 all ave/time 10 100 1000 c_press file pressure_CO2.dat
thermo_style custom step temp etotal v_nC

run ${Nstep}
run 2500000
Ewald initialization ...
  using 12-bit tables for long-range coulomb (src/kspace.cpp:342)
  G vector (1/distance) = 0.20077039
  estimated absolute RMS force accuracy = 0.0039018044
  estimated relative force accuracy = 1.1750168e-05
  KSpace vectors: actual max1d max3d = 1054 8 2456
                  kxmax kymax kzmax  = 8 8 8
Generated 1 of 1 mixed pair_coeff terms from geometric mixing rule
Last active /omp style is kspace_style ewald/omp
0 atoms in group FixGCMC:gcmc_exclusion_group:fgcmc
0 atoms in group FixGCMC:rotation_gas_atoms:fgcmc
WARNING: Neighbor exclusions used with KSpace solver may give inconsistent Coulombic energies (src/neighbor.cpp:658)
Per MPI rank memory allocation (min/avg/max) = 31.23 | 31.23 | 31.23 Mbytes
   Step          Temp          TotEng          v_nC     
      2000   217.84894      51.078935      50           
      3000   326.86944      79.967007      24           
      4000   198.38156      48.688209      27           
      5000   167.04693      40.828277      11           
      6000   138.54242      33.837323      16           
      7000   172.49642      42.256733      15           
      8000   170.37484      41.251429      14           
      9000   179.8375       43.857298      17           
     10000   184.46877      45.174259      15           
     11000   152.25607      37.199737      12           
     12000   190.37168      45.880942      21           
     13000   121.93475      29.415482      12           
     14000   176.06798      43.159009      14           
     15000   140.47292      34.464435      14           
     16000   201.90977      49.399621      17           
     17000   208.96949      51.245043      18           
     18000   171.1027       41.037983      21           
     19000   301.55572      72.672733      16           
     20000   245.30307      60.202004      12           
     21000   241.78405      59.221566      19           
     22000   166.24752      40.745228      13           
     23000   224.60114      53.89394       16           
     24000   171.77906      42.132528      11           
     25000   115.36395      28.058177      11           
     26000   184.42859      45.236216      18           
     27000   109.24827      26.721192      12           
     28000   233.81354      57.294494      15           
     29000   202.42294      49.66334       14           
     30000   196.07934      46.744835      16           
     31000   293.85818      71.932906      14           
     32000   333.956        81.187543      20           
     33000   156.32492      37.912865      12           
     34000   233.75491      56.988761      17           
     35000   292.21954      71.415995      20           
     36000   323.66614      79.36466       15           
     37000   166.96552      40.859137      10           
     38000   215.70556      53.108289      18           
     39000   189.93507      46.572622      12           
     40000   167.75511      40.828216      21           
     41000   183.47868      44.165345      18           
     42000   199.71148      48.945099      16           
     43000   195.3386       47.858552      17           
     44000   111.29933      27.255478      12           
     45000   213.04493      52.246399      14           
     46000   207.02206      50.326216      16           
     47000   215.56835      51.500477      22           
     48000   209.01551      50.564646      17           
     49000   310.73114      75.763645      15           
     50000   146.78486      36.008896      12           
     51000   305.0155       74.836443      11           
     52000   72.155228      17.636948      10           
     53000   214.91593      51.731183      17           
     54000   213.02775      52.205772      15           
     55000   189.69153      46.079277      19           
     56000   225.77806      55.369534      16           
     57000   160.56355      39.333478      16           
     58000   154.20612      37.755453      12           
     59000   162.93921      39.631855      17           
     60000   168.18846      41.255348      14           
     61000   199.5077       48.537449      19           
     62000   177.65427      43.56692       13           
     63000   161.20488      39.558571      12           
     64000   232.23042      56.743824      13           
     65000   178.3559       43.691999      11           
     66000   259.43552      63.641509      12           
     67000   161.75892      39.679389      14           
     68000   178.15237      43.677799      11           
     69000   176.26416      42.697946      13           
     70000   239.65528      58.114644      20           
     71000   261.65402      64.186458      13           
     72000   274.85053      66.773145      17           
     73000   187.23275      45.769879      16           
     74000   141.89061      34.55633       11           
     75000   166.18883      39.732122      20           
     76000   162.2416       39.721986      19           
     77000   167.49045      41.093096      13           
     78000   208.56225      50.954231      18           
     79000   295.72058      72.536303      14           
     80000   188.73427      46.25655       19           
     81000   194.03099      46.746042      19           
     82000   198.67417      47.69681       17           
     83000   288.96756      70.69212       10           
     84000   179.66226      43.441088      13           
     85000   307.78939      75.465715      16           
     86000   154.42283      37.089274      21           
     87000   252.57737      61.226467      16           
     88000   181.71323      43.692151      20           
     89000   127.66801      30.628972      12           
     90000   133.13928      32.379406      9            
     91000   207.49339      50.497734      17           
     92000   184.46732      44.334842      14           
     93000   143.48169      35.006793      18           
     94000   228.0625       55.378163      19           
     95000   268.21885      65.773146      19           
     96000   150.9489       36.247589      14           
     97000   305.7854       74.811159      9            
     98000   197.45414      48.13755       21           
     99000   175.52089      43.047846      14           
    100000   213.29265      51.936451      17           
    101000   192.66491      46.535788      17           
    102000   192.30159      46.943144      16           
    103000   171.93691      42.080454      8            
    104000   186.76694      45.812201      13           
    105000   186.80113      45.803022      14           
    106000   171.47296      41.081652      23           
    107000   223.97581      53.401726      22           
    108000   280.89974      68.890794      14           
    109000   202.42726      49.374591      18           
    110000   188.64817      46.006932      22           
    111000   221.34708      54.228573      12           
    112000   148.24284      36.225315      7            
    113000   168.67876      41.203746      14           
    114000   187.17916      45.668108      11           
    115000   193.65573      47.214102      16           
    116000   229.91774      56.019298      18           
    117000   144.75171      35.496142      9            
    118000   254.8867       62.134822      18           
    119000   165.16504      40.519327      10           
    120000   182.57608      44.707975      14           
    121000   110.86175      27.197411      9            
    122000   137.78473      32.550301      17           
    123000   182.75129      44.813886      14           
    124000   121.7056       29.865306      12           
    125000   186.63499      45.377537      20           
    126000   298.91996      72.82818       15           
    127000   138.84933      34.028107      17           
    128000   297.3913       71.620276      17           
    129000   267.44101      64.122464      23           
    130000   152.96189      37.409052      17           
    131000   127.30842      31.233388      11           
    132000   178.82417      43.599495      16           
    133000   186.79697      45.792362      19           
    134000   208.15244      50.895938      19           
    135000   196.31823      47.757326      20           
    136000   301.87048      73.009406      15           
    137000   234.29174      57.468878      12           
    138000   175.08188      42.438888      23           
    139000   210.56692      51.668515      13           
    140000   308.65843      75.609292      15           
    141000   149.85533      36.764591      11           
    142000   213.36642      51.590896      14           
    143000   271.43562      66.296113      22           
    144000   255.75502      61.883997      19           
    145000   130.69848      31.872057      11           
    146000   210.96545      51.755622      17           
    147000   200.91727      49.188952      16           
    148000   209.22459      51.295917      21           
    149000   245.68015      60.226084      15           
    150000   164.68001      39.305866      18           
    151000   182.61407      44.633899      17           
    152000   188.41923      45.662628      18           
    153000   226.96929      53.748455      25           
    154000   183.04897      44.550928      14           
    155000   336.92362      82.534622      19           
    156000   203.0316       49.254111      20           
    157000   174.8984       42.275567      22           
    158000   205.14167      49.987823      18           
    159000   320.0933       78.487296      13           
    160000   267.81845      65.679637      13           
    161000   144.3085       35.406294      11           
    162000   179.53183      44.050509      14           
    163000   198.93055      48.769509      13           
    164000   223.97794      54.888941      17           
    165000   177.36059      42.493707      15           
    166000   294.24783      71.2147        13           
    167000   288.90958      69.824356      22           
    168000   215.65407      52.528215      20           
    169000   202.70909      48.561651      24           
    170000   182.40628      44.127763      12           
    171000   129.65305      31.807729      12           
    172000   199.00345      47.218937      17           
    173000   157.19404      38.495231      10           
    174000   140.13681      34.062174      11           
    175000   193.90657      46.951661      18           
    176000   203.20052      48.783266      16           
    177000   196.99805      48.250704      15           
    178000   173.84144      42.258045      18           
    179000   159.54839      39.039526      18           
    180000   174.22261      40.961689      26           
    181000   269.62765      65.169935      18           
    182000   325.73437      79.831612      12           
    183000   216.86536      52.105971      20           
    184000   273.80838      67.136121      15           
    185000   173.66112      42.603476      12           
    186000   164.88004      40.435418      11           
    187000   233.22485      57.078218      16           
    188000   213.29542      51.65016       11           
    189000   136.51514      33.45624       12           
    190000   190.9063       46.457411      20           
    191000   195.32751      47.707414      17           
    192000   249.93363      60.063321      21           
    193000   299.98196      72.403796      25           
    194000   199.18929      48.636514      13           
    195000   193.44182      47.46504       9            
    196000   336.43916      82.433382      12           
    197000   208.87382      50.018449      17           
    198000   227.84892      55.90744       10           
    199000   166.8513       40.77666       24           
    200000   129.4419       31.416677      17           
    201000   174.23233      42.66557       16           
    202000   194.82203      47.349127      16           
    203000   112.4065       27.203029      15           
    204000   198.66574      48.655401      11           
    205000   246.76574      60.17967       14           
    206000   184.78266      44.594598      19           
    207000   222.08966      52.419237      14           
    208000   269.53617      65.269136      14           
    209000   141.1663       33.707545      12           
    210000   188.26116      46.1902        11           
    211000   179.41945      41.424817      22           
    212000   286.06692      70.165347      14           
    213000   174.98626      42.931144      13           
    214000   179.91389      44.02081       19           
    215000   187.66731      45.193188      15           
    216000   131.35563      32.204399      9            
    217000   204.34317      49.789066      15           
    218000   131.96973      32.361656      21           
    219000   242.63474      59.477868      21           
    220000   181.54808      44.407819      20           
    221000   190.35161      46.168287      19           
    222000   177.33674      43.51339       9            
    223000   72.475324      17.775572      9            
    224000   182.21409      44.026126      13           
    225000   246.08006      59.161891      20           
    226000   165.13591      40.204123      14           
    227000   207.42706      49.894323      16           
    228000   248.26868      59.993777      19           
    229000   202.92212      48.480268      21           
    230000   237.39021      58.076194      17           
    231000   193.60424      46.866383      17           
    232000   94.781193      23.255979      7            
    233000   184.81323      45.335127      15           
    234000   187.68459      45.104073      19           
    235000   171.17294      41.964603      10           
    236000   200.08556      49.070323      12           
    237000   176.69881      43.243779      12           
    238000   138.86429      33.751572      18           
    239000   169.06899      41.483361      17           
    240000   172.89543      42.308131      20           
    241000   189.7256       45.465416      16           
    242000   192.21828      46.917207      15           
    243000   167.08579      40.991007      8            
    244000   154.5844       37.928748      10           
    245000   170.89987      41.59291       13           
    246000   249.22928      60.862102      16           
    247000   197.24419      47.330684      22           
    248000   175.18148      42.951945      18           
    249000   204.45681      49.984889      15           
    250000   137.72393      33.402279      18           
    251000   186.68368      45.648721      17           
    252000   176.42131      42.858849      11           
    253000   152.74577      37.40982       16           
    254000   199.93225      48.142151      17           
    255000   206.86255      50.141044      13           
    256000   329.70896      80.89188       13           
    257000   197.53955      47.171304      15           
    258000   258.31735      63.328571      10           
    259000   203.59933      48.947719      23           
    260000   180.38517      44.26161       15           
    261000   142.83976      34.6206        17           
    262000   169.44715      41.541462      15           
    263000   327.152        79.040163      18           
    264000   173.79897      41.211971      15           
    265000   174.60591      42.844074      11           
    266000   191.15207      46.148333      16           
    267000   160.96134      39.129895      15           
    268000   262.24091      64.302738      16           
    269000   225.01734      54.711914      14           
    270000   358.6629       87.475547      19           
    271000   99.955735      24.429136      9            
    272000   207.34189      50.841895      13           
    273000   170.41815      40.778063      15           
    274000   161.09986      39.461533      11           
    275000   259.59436      61.328271      25           
    276000   242.77897      59.539639      19           
    277000   186.14917      45.605476      15           
    278000   194.03345      47.506204      21           
    279000   180.87258      44.381191      10           
    280000   216.18792      52.572019      12           
    281000   185.31191      44.674831      15           
    282000   187.85716      45.820834      13           
    283000   272.8899       66.013192      15           
    284000   144.34398      35.697522      10           
    285000   202.26133      48.788265      12           
    286000   291.78622      71.290026      21           
    287000   234.0159       55.57178       17           
    288000   199.90813      47.472955      26           
    289000   141.20867      34.647198      11           
    290000   206.16679      48.979071      19           
    291000   296.25542      72.04139       21           
    292000   198.41713      48.669816      18           
    293000   219.34056      53.755705      17           
    294000   214.25521      50.624723      19           
    295000   231.37416      55.961384      16           
    296000   320.54629      78.553305      16           
    297000   230.09221      56.274003      15           
    298000   198.84695      48.756957      21           
    299000   189.38641      44.976362      13           
    300000   249.84787      60.222984      22           
    301000   222.75614      54.542849      21           
    302000   140.72328      34.485568      13           
    303000   224.52459      55.05656       16           
    304000   163.48463      39.865914      17           
    305000   312.31596      75.944564      15           
    306000   206.80461      50.468522      20           
    307000   163.72971      40.174897      11           
    308000   248.10632      60.546149      17           
    309000   175.11164      42.869127      10           
    310000   221.06601      54.247235      13           
    311000   184.06623      44.582164      14           
    312000   73.446501      18.02202       5            
    313000   174.62356      42.843017      14           
    314000   172.27164      42.166939      17           
    315000   176.81123      43.372081      15           
    316000   146.77914      34.428306      14           
    317000   195.9274       47.527268      21           
    318000   192.38643      46.243033      15           
    319000   280.24982      68.364838      20           
    320000   184.88265      45.386755      22           
    321000   124.4911       30.51587       11           
    322000   220.51651      54.092559      15           
    323000   335.84258      81.329453      9            
    324000   280.40127      68.626275      20           
    325000   145.29464      35.646726      10           
    326000   222.90587      54.540855      21           
    327000   191.49048      46.579058      12           
    328000   255.4623       61.170072      15           
    329000   199.55864      48.746214      19           
    330000   306.51144      75.169766      18           
    331000   199.77422      49.010386      9            
    332000   218.16296      53.249244      20           
    333000   169.51446      41.435559      19           
    334000   258.62633      63.085425      13           
    335000   147.98564      36.261689      10           
    336000   264.20191      64.347901      12           
    337000   218.90533      52.293648      19           
    338000   272.06628      65.809811      15           
    339000   180.74513      44.177889      16           
    340000   226.36459      55.51946       11           
    341000   40.503389      9.9058697      7            
    342000   199.69436      48.612994      15           
    343000   184.85143      44.455849      18           
    344000   124.84889      30.291111      11           
    345000   115.25224      28.273155      10           
    346000   193.56285      47.386879      17           
    347000   218.22253      52.286274      22           
    348000   173.17865      42.340596      17           
    349000   184.12408      45.115015      16           
    350000   232.59216      56.142184      16           
    351000   171.71952      42.947279      17           
    352000   192.04916      46.928265      14           
    353000   188.28165      46.111823      16           
    354000   237.81507      58.324751      22           
    355000   183.80637      45.03888       20           
    356000   158.85214      38.857123      16           
    357000   175.68468      43.052871      16           
    358000   162.33214      39.694897      11           
    359000   166.95304      40.899455      13           
    360000   215.67897      52.022647      21           
    361000   258.64603      63.348334      15           
    362000   193.51904      47.219888      17           
    363000   201.46823      49.225185      23           
    364000   213.30926      52.3083        20           
    365000   244.48421      58.782338      22           
    366000   246.76991      60.526915      17           
    367000   214.07627      52.104083      15           
    368000   171.93593      41.299678      12           
    369000   190.70521      46.642514      15           
    370000   153.74942      37.714287      13           
    371000   128.77597      31.215424      19           
    372000   96.19911       22.660342      8            
    373000   210.43797      51.60878       14           
    374000   200.41891      48.863774      12           
    375000   167.95861      41.21947       10           
    376000   187.00054      45.852365      9            
    377000   256.22465      61.94158       17           
    378000   186.93266      45.676911      12           
    379000   121.14434      29.728659      11           
    380000   229.83024      55.705069      16           
    381000   193.11413      46.690778      12           
    382000   199.67956      47.570202      20           
    383000   202.63595      48.693505      14           
    384000   200.33184      49.12518       13           
    385000   218.26884      53.263332      14           
    386000   176.05216      43.201559      10           
    387000   193.39271      47.446262      13           
    388000   200.1917       49.070351      17           
    389000   270.05629      66.248537      13           
    390000   310.63395      75.826457      20           
    391000   285.95391      69.74048       17           
    392000   227.81737      55.130955      14           
    393000   273.92963      66.857796      22           
    394000   222.06042      54.466587      15           
    395000   184.74767      45.177419      19           
    396000   238.06666      57.529423      20           
    397000   304.31247      74.027153      18           
    398000   154.80928      37.695738      12           
    399000   194.31448      47.636958      15           
    400000   202.7005       49.364758      16           
    401000   186.89991      45.028581      17           
    402000   268.96409      65.987741      18           
    403000   220.65576      53.992825      11           
    404000   270.66076      65.362359      15           
    405000   189.95439      44.886717      22           
    406000   189.65774      45.900756      17           
    407000   162.22949      38.510546      18           
    408000   279.38204      68.52807       14           
    409000   215.15365      52.024104      19           
    410000   106.08439      25.981696      9            
    411000   329.03378      80.714467      17           
    412000   153.98888      37.389783      12           
    413000   155.60442      36.363817      22           
    414000   152.19684      37.243509      11           
    415000   181.33932      44.481648      11           
    416000   173.35953      41.653268      17           
    417000   215.16041      52.767236      14           
    418000   135.78597      33.273538      12           
    419000   181.70486      44.079944      16           
    420000   268.99646      65.579842      21           
    421000   235.46846      57.693258      16           
    422000   129.17344      31.911139      12           
    423000   198.20519      47.758773      17           
    424000   185.97299      45.387444      21           
    425000   171.69108      41.718113      15           
    426000   190.47786      45.583454      19           
    427000   320.11212      78.085107      21           
    428000   283.0523       69.415017      18           
    429000   189.13745      46.019258      15           
    430000   188.65065      46.221029      11           
    431000   128.73399      31.589554      7            
    432000   341.76504      83.728038      21           
    433000   178.85349      43.44794       15           
    434000   208.88239      50.804656      16           
    435000   242.27378      58.910865      25           
    436000   330.87203      80.694271      20           
    437000   243.90886      58.99067       23           
    438000   161.29999      39.123543      18           
    439000   230.10066      55.505502      24           
    440000   263.83938      64.694527      15           
    441000   273.15847      66.939807      19           
    442000   272.88505      65.809109      22           
    443000   151.66867      37.159649      17           
    444000   188.16458      46.099056      11           
    445000   151.03476      37.081431      12           
    446000   208.43455      49.599345      24           
    447000   247.88499      59.587112      22           
    448000   233.0424       56.163321      17           
    449000   170.88914      41.801624      13           
    450000   206.65239      49.793657      19           
    451000   169.17199      41.498666      14           
    452000   120.18136      29.009446      13           
    453000   214.93184      51.797202      20           
    454000   251.40521      61.680984      12           
    455000   210.23154      50.651494      25           
    456000   288.44344      70.766185      16           
    457000   199.12096      48.308194      18           
    458000   178.99991      43.439257      17           
    459000   190.84424      45.958965      10           
    460000   167.51317      40.529152      13           
    461000   248.38464      60.630867      14           
    462000   164.50275      40.151818      14           
    463000   272.73384      66.372951      15           
    464000   164.56123      40.319123      19           
    465000   166.34361      39.83896       22           
    466000   328.66261      80.487487      17           
    467000   169.86049      41.678727      10           
    468000   204.2307       47.986261      21           
    469000   217.65474      52.537211      17           
    470000   99.793648      24.475677      10           
    471000   198.2596       48.600435      15           
    472000   246.13456      60.218925      16           
    473000   278.84708      68.120409      15           
    474000   222.69452      52.880404      16           
    475000   177.65884      42.756243      12           
    476000   126.5482       31.050377      11           
    477000   100.15675      24.569377      9            
    478000   173.68824      41.953968      21           
    479000   220.10487      53.703233      19           
    480000   164.54316      40.370446      14           
    481000   331.37497      81.191266      14           
    482000   260.63772      63.949095      12           
    483000   202.92425      49.092938      14           
    484000   243.40293      56.925674      26           
    485000   204.61174      50.136149      14           
    486000   170.16905      41.724681      12           
    487000   193.52944      47.24353       16           
    488000   135.78321      33.290081      13           
    489000   109.99432      26.979614      10           
    490000   165.73167      40.647155      14           
    491000   182.76748      44.385027      19           
    492000   206.34558      50.591554      15           
    493000   212.50171      51.891339      14           
    494000   309.58382      73.707813      16           
    495000   305.79357      73.485531      25           
    496000   233.44595      57.008205      12           
    497000   193.66652      47.405677      16           
    498000   147.34147      35.778404      15           
    499000   198.63542      48.604389      24           
    500000   156.514        38.315759      14           
    501000   197.8969       48.546964      17           
    502000   149.1535       36.517236      11           
    503000   197.65613      48.263055      20           
    504000   207.23485      49.710459      19           
    505000   300.85455      73.784977      15           
    506000   235.43919      57.054797      25           
    507000   209.24974      50.523822      17           
    508000   193.83972      47.004705      15           
    509000   177.35168      43.061113      23           
    510000   156.09781      38.292948      13           
    511000   109.70556      26.896263      12           
    512000   139.78375      34.18794       15           
    513000   248.55182      59.582394      17           
    514000   155.38247      37.920703      16           
    515000   199.97135      48.963424      15           
    516000   154.13368      37.831124      11           
    517000   186.14653      44.6424        16           
    518000   197.20956      48.352706      16           
    519000   209.14251      50.73078       14           
    520000   171.04534      41.776205      12           
    521000   188.76356      45.840655      19           
    522000   169.14813      40.77143       12           
    523000   199.6658       48.495115      19           
    524000   316.13623      77.037066      20           
    525000   308.31057      75.242617      21           
    526000   252.02437      60.780569      9            
    527000   275.30221      67.54309       18           
    528000   222.69677      53.119129      20           
    529000   243.76851      59.694445      12           
    530000   152.07607      36.837382      18           
    531000   201.49424      48.736333      15           
    532000   180.58542      43.534628      21           
    533000   142.3318       34.914331      12           
    534000   258.20206      61.883867      16           
    535000   180.62458      43.982917      18           
    536000   195.76184      47.708344      12           
    537000   189.06998      46.319839      15           
    538000   195.5403       47.941349      19           
    539000   134.31164      32.923578      11           
    540000   122.85134      30.136237      7            
    541000   235.17149      56.882737      16           
    542000   98.903483      24.208386      8            
    543000   136.18685      33.414849      11           
    544000   184.80105      44.548495      15           
    545000   179.64501      44.075037      14           
    546000   242.13448      58.787246      21           
    547000   118.26969      29.016618      9            
    548000   135.87867      32.704529      9            
    549000   87.034653      21.342011      6            
    550000   214.63581      52.264715      23           
    551000   227.85712      54.312882      22           
    552000   201.77877      49.463605      16           
    553000   213.0432       52.147318      15           
    554000   194.71593      46.831677      15           
    555000   138.45396      33.776926      17           
    556000   322.93754      77.630639      17           
    557000   154.86297      37.974971      12           
    558000   175.85063      42.031801      20           
    559000   266.10368      64.601907      15           
    560000   182.45347      44.768525      11           
    561000   244.4111       59.892106      15           
    562000   174.88492      42.502243      14           
    563000   208.93241      49.981885      15           
    564000   171.03508      41.277027      13           
    565000   206.4038       50.234863      14           
    566000   198.7189       48.726165      17           
    567000   102.30446      25.100227      10           
    568000   185.82557      45.404888      15           
    569000   211.70918      51.929483      16           
    570000   178.63807      43.666662      17           
    571000   153.17646      37.572747      14           
    572000   191.44052      46.510321      14           
    573000   299.94015      73.458319      16           
    574000   319.52975      78.142698      16           
    575000   170.26354      41.444422      16           
    576000   177.84271      42.820182      19           
    577000   308.95531      75.759453      18           
    578000   190.78318      46.811391      10           
    579000   194.67271      46.812481      17           
    580000   293.93445      72.120566      13           
    581000   188.06974      46.137659      15           
    582000   202.11391      49.186527      21           
    583000   191.51919      46.58034       10           
    584000   173.01274      42.047772      14           
    585000   206.81054      50.669532      12           
    586000   181.62754      43.75202       12           
    587000   187.23336      45.93737       10           
    588000   152.61921      37.35463       19           
    589000   173.791        42.621612      11           
    590000   247.03608      59.317193      23           
    591000   289.04651      70.488485      23           
    592000   207.33092      50.003009      19           
    593000   278.16242      67.857674      19           
    594000   123.45176      30.199329      11           
    595000   153.08806      37.249679      20           
    596000   200.19842      47.954773      22           
    597000   170.34184      41.684059      17           
    598000   121.18599      29.705696      13           
    599000   179.14107      44.988186      13           
    600000   260.88402      63.910765      20           
    601000   195.593        47.92705       14           
    602000   182.75634      44.816659      14           
    603000   196.97206      48.315498      16           
    604000   198.30797      48.661897      15           
    605000   167.6266       41.104279      13           
    606000   196.00501      46.781198      12           
    607000   166.92755      40.710742      11           
    608000   169.92222      41.68614       16           
    609000   174.35415      42.353071      19           
    610000   169.8826       41.47587       22           
    611000   195.528        46.644544      15           
    612000   164.27291      40.299196      13           
    613000   214.38325      51.838189      20           
    614000   155.86336      38.121208      19           
    615000   197.23396      47.697865      19           
    616000   220.73834      53.353402      23           
    617000   173.38005      42.546287      15           
    618000   205.62798      49.957418      17           
    619000   207.93231      50.369086      18           
    620000   168.38226      41.2854        12           
    621000   174.61501      42.81854       12           
    622000   115.57395      27.740382      11           
    623000   167.57003      40.66867       12           
    624000   265.44631      64.551682      20           
    625000   173.18749      42.306445      13           
    626000   186.18705      45.564551      18           
    627000   275.43246      66.554326      14           
    628000   190.42357      46.638071      11           
    629000   201.49141      49.332372      13           
    630000   138.2863       33.671011      11           
    631000   258.09446      63.170807      15           
    632000   198.68713      48.08677       19           
    633000   161.3935       39.589152      8            
    634000   233.60395      57.101301      19           
    635000   170.10186      41.667659      17           
    636000   139.79995      33.871646      13           
    637000   296.51965      72.193985      19           
    638000   133.91036      32.828445      11           
    639000   202.44359      49.266498      21           
    640000   151.0887       36.950558      21           
    641000   173.85364      42.101758      15           
    642000   174.49561      42.803329      13           
    643000   150.93749      37.043788      12           
    644000   177.30189      43.468616      18           
    645000   202.96162      49.243058      20           
    646000   63.329051      15.494686      11           
    647000   212.9039       51.167668      23           
    648000   255.19543      62.577641      10           
    649000   261.32876      64.127918      13           
    650000   210.35829      51.597027      15           
    651000   137.2936       33.642431      13           
    652000   307.48917      75.324489      13           
    653000   72.117862      17.695041      7            
    654000   166.89128      40.413516      17           
    655000   203.71122      48.979528      12           
    656000   195.77119      47.785789      17           
    657000   146.05961      35.777542      15           
    658000   186.2462       44.204469      25           
    659000   313.44227      75.14932       21           
    660000   276.11336      66.950286      19           
    661000   208.70937      50.134099      16           
    662000   182.21629      44.600678      21           
    663000   199.96718      51.352678      13           
    664000   179.43816      43.921895      17           
    665000   111.12101      27.261544      11           
    666000   186.61852      45.709264      11           
    667000   188.17636      46.07632       17           
    668000   222.66559      54.464333      9            
    669000   228.9033       55.271379      14           
    670000   251.77846      61.766639      16           
    671000   313.66796      76.952642      11           
    672000   142.78441      35.026641      9            
    673000   211.23739      51.246184      22           
    674000   304.4648       74.148999      22           
    675000   253.00062      61.573251      19           
    676000   148.69549      36.473546      13           
    677000   219.21346      52.721302      19           
    678000   197.61243      47.501064      16           
    679000   141.1846       33.687531      15           
    680000   139.54435      34.101959      17           
    681000   213.70023      52.063286      17           
    682000   177.4658       41.896677      20           
    683000   292.56541      71.151136      16           
    684000   211.37236      51.810532      16           
    685000   228.84427      55.176155      18           
    686000   158.17218      39.238759      17           
    687000   200.93395      48.06868       15           
    688000   276.38832      67.147289      12           
    689000   131.94248      32.389895      10           
    690000   256.90555      63.002033      17           
    691000   203.39231      49.893736      17           
    692000   83.789302      19.151275      10           
    693000   186.18653      45.662485      13           
    694000   188.8345       45.510349      21           
    695000   279.72747      67.499448      21           
    696000   288.11542      70.324941      17           
    697000   173.68384      42.5718        19           
    698000   108.49196      26.565507      11           
    699000   178.18784      43.435357      16           
    700000   185.59923      45.507143      14           
    701000   272.48479      66.434423      11           
    702000   140.21367      34.320888      14           
    703000   151.02043      36.926214      16           
    704000   167.34778      41.05358       13           
    705000   212.90631      51.665222      19           
    706000   203.89585      49.96321       20           
    707000   143.72855      35.269489      9            
    708000   121.17534      29.718616      11           
    709000   198.59005      46.755244      20           
    710000   181.69555      44.392431      14           
    711000   150.07212      36.82205       9            
    712000   116.02117      28.021886      8            
    713000   197.33458      48.338664      18           
    714000   228.17876      55.882673      18           
    715000   179.74493      44.037779      16           
    716000   95.00284       22.623671      9            
    717000   192.32016      45.918484      20           
    718000   188.41226      45.712621      24           
    719000   170.81155      41.333186      17           
    720000   217.32068      52.545056      14           
    721000   186.70352      45.69628       17           
    722000   182.21102      43.935383      13           
    723000   180.24445      43.061255      19           
    724000   166.20941      40.7827        21           
    725000   156.80651      36.029879      19           
    726000   270.83865      66.013067      21           
    727000   232.38206      56.076923      20           
    728000   164.46188      39.524847      12           
    729000   203.84724      50.01107       10           
    730000   198.72523      47.994906      15           
    731000   150.93117      36.291577      19           
    732000   174.1448       41.985278      17           
    733000   157.68099      37.637192      18           
    734000   335.00611      82.1686        13           
    735000   194.46439      47.643413      15           
    736000   170.47663      41.825253      10           
    737000   159.05793      39.026376      11           
    738000   191.89848      46.975862      19           
    739000   307.97027      75.290383      18           
    740000   340.79221      83.533517      17           
    741000   176.85845      43.368216      16           
    742000   311.24453      76.342627      15           
    743000   145.05124      35.528999      13           
    744000   150.70928      36.444029      14           
    745000   276.92506      66.993952      17           
    746000   225.7231       55.287424      20           
    747000   171.63318      41.145267      26           
    748000   256.45454      61.497499      25           
    749000   203.968        50.047078      16           
    750000   205.7731       50.315357      10           
    751000   210.99217      51.343217      18           
    752000   190.06214      45.901772      13           
    753000   184.85061      45.041382      20           
    754000   153.57409      37.097882      23           
    755000   179.82968      44.071304      12           
    756000   188.77138      46.280374      17           
    757000   166.41396      40.278368      14           
    758000   305.37166      74.687694      19           
    759000   230.58138      56.391202      18           
    760000   164.99297      40.475486      10           
    761000   155.66527      38.171181      16           
    762000   167.8676       40.641254      13           
    763000   199.98348      48.956684      19           
    764000   202.42888      49.652556      14           
    765000   170.79359      40.118434      25           
    766000   264.56421      64.895631      16           
    767000   194.48294      47.434179      19           
    768000   293.65034      71.740211      13           
    769000   178.75892      43.848717      16           
    770000   125.35714      30.69983       9            
    771000   181.86009      44.597389      14           
    772000   180.72444      44.301936      14           
    773000   133.95315      32.869279      10           
    774000   215.79998      51.646026      15           
    775000   150.40987      36.610036      13           
    776000   161.1985       38.398997      15           
    777000   223.14056      54.71092       17           
    778000   173.74917      42.299344      17           
    779000   197.08731      47.558613      18           
    780000   196.56108      48.226052      19           
    781000   197.51569      47.764939      17           
    782000   240.39506      58.44456       11           
    783000   119.94866      29.052699      13           
    784000   161.25506      39.469712      12           
    785000   200.26902      48.27318       18           
    786000   200.01608      48.933415      17           
    787000   322.14178      78.418012      15           
    788000   187.66221      44.761094      18           
    789000   276.25849      67.690555      23           
    790000   211.60158      50.78794       27           
    791000   193.3589       46.498263      12           
    792000   206.5978       50.023103      17           
    793000   160.49881      39.29568       14           
    794000   199.705        48.9449        11           
    795000   197.15053      47.529126      21           
    796000   166.22173      39.48511       21           
    797000   168.48135      41.192512      13           
    798000   136.55899      32.967988      12           
    799000   178.20994      42.892334      21           
    800000   299.20021      72.669496      18           
    801000   180.9944       43.79999       17           
    802000   175.49019      41.596754      19           
    803000   269.60286      65.338902      16           
    804000   250.95204      60.239809      19           
    805000   193.16202      46.811319      16           
    806000   206.80629      50.286178      16           
    807000   166.25928      40.691525      13           
    808000   304.3879       73.267914      19           
    809000   186.06915      45.305383      19           
    810000   202.00438      49.557143      15           
    811000   157.72562      37.959399      21           
    812000   253.90491      60.238873      26           
    813000   273.60604      66.986221      22           
    814000   160.84203      39.392515      15           
    815000   236.90993      57.234294      24           
    816000   160.74527      39.451567      8            
    817000   146.8896       35.649149      12           
    818000   198.92047      48.259131      19           
    819000   166.89807      40.056091      15           
    820000   155.49062      38.077515      13           
    821000   167.96447      40.393685      14           
    822000   179.20147      43.527888      18           
    823000   150.46638      34.534149      21           
    824000   180.28479      44.237726      12           
    825000   191.35343      46.939099      16           
    826000   198.7233       47.828488      19           
    827000   268.65531      65.208         13           
    828000   186.72559      45.673198      14           
    829000   191.29189      46.785153      19           
    830000   120.75599      29.478825      16           
    831000   293.67641      71.776488      15           
    832000   197.61264      48.439899      18           
    833000   151.73312      37.146174      12           
    834000   141.11816      34.1347        10           
    835000   187.25914      45.796805      13           
    836000   181.85886      42.960929      16           
    837000   342.35787      83.236773      16           
    838000   184.33024      44.946712      16           
    839000   147.18784      36.114323      9            
    840000   189.14132      46.296982      14           
    841000   212.22817      51.345996      18           
    842000   325.92578      79.428134      12           
    843000   213.64034      52.405627      15           
    844000   219.27727      53.073337      17           
    845000   175.37913      42.805556      12           
    846000   301.90384      74.07537       18           
    847000   190.94363      45.464129      19           
    848000   129.23153      30.265099      8            
    849000   159.93666      39.139129      13           
    850000   215.48708      52.777007      14           
    851000   224.94023      55.130371      16           
    852000   152.71412      36.295061      13           
    853000   110.65405      27.156097      7            
    854000   325.14802      79.415886      11           
    855000   264.65019      64.257239      22           
    856000   169.76023      41.648991      11           
    857000   192.46267      46.488455      22           
    858000   314.14176      76.581293      18           
    859000   152.62783      37.158219      17           
    860000   188.46837      46.181878      17           
    861000   194.52754      46.929995      22           
    862000   323.06121      78.760681      21           
    863000   174.72545      42.826727      16           
    864000   177.42849      43.528351      11           
    865000   192.49043      47.150276      24           
    866000   158.68609      38.733844      15           
    867000   153.40672      37.594946      12           
    868000   178.80359      43.538482      14           
    869000   251.74167      61.6692        20           
    870000   218.04393      52.994841      20           
    871000   190.53448      46.418654      16           
    872000   198.16483      48.162762      20           
    873000   283.39238      69.485977      13           
    874000   162.13415      39.546086      14           
    875000   199.97252      47.66615       21           
    876000   261.54285      64.175915      12           
    877000   126.16727      30.622894      12           
    878000   209.97473      50.388429      23           
    879000   182.50621      45.162346      19           
    880000   181.61015      44.409366      15           
    881000   203.12792      49.766542      16           
    882000   184.45103      45.163774      14           
    883000   195.3376       47.762857      18           
    884000   271.44947      65.645416      20           
    885000   173.91366      42.524057      11           
    886000   211.63783      51.529068      15           
    887000   288.35252      70.180347      21           
    888000   196.0234       47.551273      17           
    889000   177.15646      43.45133       11           
    890000   174.89116      41.739848      23           
    891000   265.179        62.689266      24           
    892000   331.62653      79.846904      19           
    893000   162.25325      39.04121       10           
    894000   131.93507      32.228905      12           
    895000   125.52711      30.734411      13           
    896000   231.36965      55.784745      24           
    897000   158.90027      38.843471      12           
    898000   235.37941      56.130766      17           
    899000   198.50343      48.601417      15           
    900000   135.22842      33.145272      14           
    901000   191.01012      46.767336      19           
    902000   125.42956      30.742913      14           
    903000   160.91235      39.422946      14           
    904000   276.56563      67.794605      17           
    905000   194.21206      46.94237       17           
    906000   194.71996      47.508123      14           
    907000   187.41275      45.161641      15           
    908000   290.21314      71.209451      12           
    909000   218.66675      53.568707      18           
    910000   173.88649      42.595687      13           
    911000   185.87221      45.544169      11           
    912000   170.55069      41.722353      22           
    913000   181.33352      43.553321      21           
    914000   203.58245      49.843328      17           
    915000   160.06542      38.430632      23           
    916000   198.42667      48.548259      18           
    917000   188.81263      46.275564      16           
    918000   147.86906      36.184054      14           
    919000   178.89523      43.531692      17           
    920000   195.87916      47.813524      16           
    921000   190.88532      45.902805      20           
    922000   159.6528       38.635307      22           
    923000   293.61134      71.375434      18           
    924000   166.81447      39.710211      19           
    925000   159.69501      39.159195      13           
    926000   117.39313      28.805956      7            
    927000   187.9645       45.013302      14           
    928000   202.43738      48.555516      20           
    929000   147.83635      36.244643      7            
    930000   193.9121       47.180863      16           
    931000   206.1188       49.346117      18           
    932000   190.90806      46.847317      10           
    933000   178.08638      42.588713      21           
    934000   300.15025      72.634333      17           
    935000   177.21909      43.478002      15           
    936000   155.08541      37.000157      20           
    937000   279.47882      67.584741      18           
    938000   233.3619       56.366354      19           
    939000   165.44171      40.159753      11           
    940000   193.00559      47.251477      11           
    941000   138.45401      33.792187      16           
    942000   150.62241      35.09349       15           
    943000   184.04481      44.83411       11           
    944000   121.76053      29.532425      15           
    945000   172.09142      41.769885      10           
    946000   161.09744      39.247641      12           
    947000   132.83444      32.562509      14           
    948000   303.95558      73.241494      24           
    949000   229.6168       56.29096       15           
    950000   127.81827      31.364207      9            
    951000   165.86283      40.698501      13           
    952000   200.65548      48.88481       14           
    953000   112.28165      27.550584      12           
    954000   123.93777      30.170842      23           
    955000   233.14026      56.184258      21           
    956000   230.96106      56.072098      18           
    957000   190.41196      46.527873      16           
    958000   156.73372      37.308331      25           
    959000   282.07342      69.206403      16           
    960000   106.69812      25.64009       10           
    961000   216.50546      53.061056      20           
    962000   137.33401      33.6989        10           
    963000   167.33808      41.047563      12           
    964000   179.70001      43.700686      19           
    965000   186.66183      44.233792      17           
    966000   133.00604      32.524447      10           
    967000   117.60013      28.691332      11           
    968000   174.91953      42.767227      12           
    969000   183.75908      44.929392      12           
    970000   188.3605       46.052723      18           
    971000   157.27004      37.667589      18           
    972000   161.92623      39.137994      16           
    973000   318.18101      77.159405      19           
    974000   299.6829       73.328528      21           
    975000   177.08879      43.352491      16           
    976000   144.37762      35.411641      13           
    977000   167.5603       40.822533      13           
    978000   182.91395      44.750029      16           
    979000   290.96741      70.053764      20           
    980000   171.12801      41.544574      12           
    981000   131.8689       32.342038      11           
    982000   175.51788      42.986986      18           
    983000   162.9933       39.601242      15           
    984000   306.22536      75.111905      16           
    985000   305.044        74.683036      16           
    986000   317.76164      77.95312       17           
    987000   193.59023      46.932013      12           
    988000   192.34956      46.525794      19           
    989000   298.56691      72.921839      19           
    990000   123.15865      30.195072      7            
    991000   243.75278      59.343941      17           
    992000   230.37641      55.453451      18           
    993000   244.8282       59.428692      14           
    994000   198.86237      48.507956      19           
    995000   172.73089      42.376317      13           
    996000   175.78969      42.95295       20           
    997000   214.26455      52.524868      15           
    998000   169.83713      41.626524      12           
    999000   206.10677      50.13108       17           
   1000000   136.31045      32.523697      20           
   1001000   194.63281      46.80458       18           
   1002000   190.80071      46.048114      15           
   1003000   150.94662      36.626674      13           
   1004000   210.60595      51.042692      16           
   1005000   310.92488      76.246265      18           
   1006000   166.59057      39.848827      15           
   1007000   278.80968      67.539509      24           
   1008000   170.61375      41.341183      18           
   1009000   144.05248      35.294729      13           
   1010000   196.24899      48.012458      18           
   1011000   195.75744      47.955339      18           
   1012000   250.21294      61.182133      17           
   1013000   162.35138      39.816663      13           
   1014000   173.69264      42.553028      17           
   1015000   173.26128      42.138376      17           
   1016000   293.02657      70.759512      22           
   1017000   153.80491      37.725486      17           
   1018000   166.40271      40.316528      26           
   1019000   209.15807      51.219302      16           
   1020000   183.03204      44.163642      15           
   1021000   213.59371      52.383574      18           
   1022000   322.66286      78.413935      23           
   1023000   204.0109       49.563544      18           
   1024000   217.93547      54.671673      17           
   1025000   310.48668      76.172986      19           
   1026000   194.38711      50.311149      22           
   1027000   262.32266      63.508821      17           
   1028000   254.38376      61.952468      12           
   1029000   208.05289      50.938908      19           
   1030000   304.46274      74.23383       17           
   1031000   209.02686      50.343107      17           
   1032000   144.99224      35.567096      11           
   1033000   190.36467      46.346134      14           
   1034000   192.21416      46.942579      16           
   1035000   207.23557      50.426239      27           
   1036000   141.25885      34.298991      16           
   1037000   192.9564       46.369238      11           
   1038000   172.36545      42.190841      13           
   1039000   171.95121      42.144301      12           
   1040000   226.09813      55.139305      16           
   1041000   190.98141      46.803023      15           
   1042000   304.04897      73.257661      23           
   1043000   209.94665      50.695267      19           
   1044000   182.26707      43.692512      18           
   1045000   222.8206       54.570912      10           
   1046000   155.60004      37.976636      17           
   1047000   146.29704      35.815716      8            
   1048000   199.58424      48.965187      15           
   1049000   205.4861       50.266038      18           
   1050000   162.94658      39.950115      20           
   1051000   174.4148       41.799268      14           
   1052000   199.82766      48.887709      14           
   1053000   177.95711      43.259158      18           
   1054000   172.18534      42.219842      16           
   1055000   170.89635      41.538635      13           
   1056000   149.24189      36.586771      6            
   1057000   195.15148      47.205816      23           
   1058000   177.72058      42.566922      17           
   1059000   154.90789      37.195191      12           
   1060000   154.14089      37.817019      14           
   1061000   203.39157      47.879782      23           
   1062000   186.15337      45.605744      15           
   1063000   217.02624      53.216866      12           
   1064000   243.49599      59.118876      16           
   1065000   165.82661      40.667876      17           
   1066000   180.82311      44.078521      15           
   1067000   142.75365      35.009306      9            
   1068000   139.16784      33.454384      22           
   1069000   207.92205      50.403494      18           
   1070000   255.37534      60.605563      19           
   1071000   302.76188      74.167263      15           
   1072000   141.93671      34.226147      21           
   1073000   149.28229      36.446752      19           
   1074000   292.92166      71.730324      18           
   1075000   170.78306      41.890227      12           
   1076000   219.52169      53.906536      12           
   1077000   167.08373      40.520444      14           
   1078000   205.11302      50.246247      15           
   1079000   218.64696      53.648544      12           
   1080000   195.69565      47.770239      20           
   1081000   245.80137      60.164377      20           
   1082000   150.45237      36.720597      8            
   1083000   214.25267      51.613687      26           
   1084000   289.12567      70.940306      13           
   1085000   193.67047      46.570615      23           
   1086000   264.02743      64.39836       16           
   1087000   311.4623       75.784435      25           
   1088000   196.29519      48.112445      17           
   1089000   153.38256      37.624025      14           
   1090000   133.78258      32.70042       14           
   1091000   199.77899      48.886187      19           
   1092000   216.4067       52.826119      23           
   1093000   185.38196      44.932866      10           
   1094000   102.4434       25.119198      13           
   1095000   180.85378      44.251389      14           
   1096000   199.71176      48.170921      24           
   1097000   177.45797      43.49984       17           
   1098000   197.12124      47.449677      19           
   1099000   184.32008      45.229706      8            
   1100000   281.1353       67.987999      21           
   1101000   230.15854      56.049601      22           
   1102000   95.074945      23.331417      8            
   1103000   192.09082      47.101706      14           
   1104000   200.93581      48.323844      18           
   1105000   196.57884      47.956509      17           
   1106000   136.3876       33.321306      13           
   1107000   206.8023       50.499008      21           
   1108000   305.03338      74.800891      15           
   1109000   266.43473      64.975276      15           
   1110000   188.84896      44.840297      20           
   1111000   199.61777      48.446378      21           
   1112000   165.91568      40.699921      13           
   1113000   290.76929      71.132018      15           
   1114000   178.66133      43.647243      25           
   1115000   193.56132      47.466897      16           
   1116000   151.23468      37.03182       15           
   1117000   237.54995      56.174426      17           
   1118000   142.81516      34.358002      23           
   1119000   211.50069      51.474206      20           
   1120000   192.73594      45.959505      15           
   1121000   153.8191       37.68325       12           
   1122000   131.77296      32.260654      19           
   1123000   217.01059      53.139665      11           
   1124000   189.37203      46.904213      18           
   1125000   196.88556      48.082138      16           
   1126000   117.69302      28.844363      10           
   1127000   308.84761      74.465399      24           
   1128000   177.03644      42.950622      13           
   1129000   165.0593       40.444519      15           
   1130000   192.97343      46.952565      13           
   1131000   208.04754      50.394287      18           
   1132000   169.1599       40.133567      15           
   1133000   266.40086      64.818831      19           
   1134000   240.14035      58.815574      15           
   1135000   249.84865      60.685256      20           
   1136000   162.5542       39.84689       12           
   1137000   244.74038      58.986557      22           
   1138000   166.07266      40.744481      12           
   1139000   216.04595      52.089139      22           
   1140000   189.13903      46.408617      13           
   1141000   127.79727      31.338534      16           
   1142000   190.29748      46.624829      13           
   1143000   139.99416      34.331001      10           
   1144000   171.67327      39.300488      21           
   1145000   337.26719      81.233931      14           
   1146000   304.68643      74.76314       10           
   1147000   99.617531      24.393201      11           
   1148000   268.30401      65.326183      17           
   1149000   183.6269       45.024528      16           
   1150000   159.46215      39.025769      15           
   1151000   238.63441      58.430546      15           
   1152000   162.83447      39.929843      13           
   1153000   204.52688      49.920495      15           
   1154000   177.267        42.379406      13           
   1155000   149.9674       36.620373      10           
   1156000   186.8092       45.662466      12           
   1157000   201.53403      49.448107      19           
   1158000   237.70895      57.466031      15           
   1159000   167.27661      41.017203      15           
   1160000   192.89827      46.60021       19           
   1161000   240.67293      58.404818      19           
   1162000   290.57263      71.089613      14           
   1163000   125.93301      30.8985        11           
   1164000   186.07063      45.641642      16           
   1165000   180.09371      44.173378      12           
   1166000   135.07477      33.138215      15           
   1167000   181.29669      44.441084      12           
   1168000   131.82104      32.340202      10           
   1169000   158.65489      38.714788      15           
   1170000   290.60288      71.13765       23           
   1171000   137.10285      33.170714      21           
   1172000   136.02338      33.336226      13           
   1173000   186.30056      42.652314      23           
   1174000   330.46018      81.033804      15           
   1175000   190.70079      46.745361      15           
   1176000   189.55838      46.226785      19           
   1177000   148.08251      36.335909      9            
   1178000   98.957177      24.282869      8            
   1179000   152.85916      37.408587      8            
   1180000   209.36163      50.603602      17           
   1181000   159.91178      39.211428      15           
   1182000   187.00934      43.769782      18           
   1183000   257.58317      63.191522      16           
   1184000   198.84413      48.76279       17           
   1185000   291.45833      71.401295      12           
   1186000   192.39362      47.128565      19           
   1187000   148.30419      35.876369      15           
   1188000   167.44676      40.965735      12           
   1189000   162.15654      39.774776      12           
   1190000   200.74747      48.805852      13           
   1191000   149.51608      36.657113      12           
   1192000   178.0611       43.28484       14           
   1193000   210.3083       51.306527      18           
   1194000   193.43274      47.41886       12           
   1195000   177.84757      43.614849      14           
   1196000   107.24604      26.719815      11           
   1197000   140.30924      34.371616      11           
   1198000   166.98038      40.899857      18           
   1199000   198.79438      46.593703      23           
   1200000   174.35762      42.508746      16           
   1201000   245.18048      59.662312      15           
   1202000   183.23124      43.57596       13           
   1203000   283.41317      67.817579      21           
   1204000   163.0574       39.774544      18           
   1205000   183.59659      44.774538      24           
   1206000   261.38826      63.010147      22           
   1207000   253.72254      62.135876      17           
   1208000   224.95124      54.5547        18           
   1209000   351.38852      86.213766      15           
   1210000   159.13601      38.89269       15           
   1211000   176.62751      43.007637      13           
   1212000   169.77298      41.593137      16           
   1213000   200.5457       47.747214      21           
   1214000   162.8999       39.966712      12           
   1215000   171.93607      40.737515      14           
   1216000   113.79342      27.250005      11           
   1217000   177.10196      43.350004      14           
   1218000   241.14507      58.470368      18           
   1219000   195.0583       47.678532      15           
   1220000   164.60891      39.98707       12           
   1221000   200.20175      48.55928       20           
   1222000   182.2109       44.650824      13           
   1223000   130.14038      31.917512      8            
   1224000   163.31562      40.084399      12           
   1225000   135.94046      33.201326      9            
   1226000   163.90774      40.216096      13           
   1227000   185.98848      44.459391      18           
   1228000   183.93828      44.554845      18           
   1229000   162.87464      39.877301      15           
   1230000   147.36721      35.903938      18           
   1231000   142.36419      34.933296      11           
   1232000   210.82735      51.666643      18           
   1233000   175.82852      42.433841      22           
   1234000   181.22756      44.07492       8            
   1235000   241.20152      59.07933       17           
   1236000   174.156        42.478453      20           
   1237000   169.8419       41.673254      13           
   1238000   194.05976      46.458424      19           
   1239000   294.47952      72.252024      13           
   1240000   193.66701      47.03875       18           
   1241000   198.99459      48.784477      9            
   1242000   193.65225      46.728353      18           
   1243000   180.9282       43.383184      19           
   1244000   244.20002      59.614073      17           
   1245000   179.20992      43.593157      19           
   1246000   190.25217      46.216524      15           
   1247000   221.43586      53.530676      16           
   1248000   118.90952      29.009178      10           
   1249000   287.07856      68.555046      25           
   1250000   163.33258      40.032849      14           
   1251000   132.02013      32.394595      9            
   1252000   177.78153      42.865741      21           
   1253000   201.83327      48.915328      14           
   1254000   186.765        45.540787      13           
   1255000   188.80871      46.244724      12           
   1256000   166.31911      40.299597      15           
   1257000   167.54047      40.300743      12           
   1258000   295.90397      71.745941      23           
   1259000   277.58035      67.713858      16           
   1260000   265.92914      64.216921      20           
   1261000   189.84392      46.52077       16           
   1262000   218.8452       51.620201      28           
   1263000   302.3578       73.746777      20           
   1264000   179.69326      43.466803      20           
   1265000   138.61442      33.922808      14           
   1266000   165.23839      39.531812      19           
   1267000   179.77412      43.115895      14           
   1268000   153.62763      36.954512      19           
   1269000   175.26587      42.699835      14           
   1270000   175.2601       42.754971      15           
   1271000   190.9849       46.515846      21           
[...]
   2175000   188.5869       46.215207      16           
   2176000   252.39303      61.750845      11           
   2177000   180.96         44.644804      18           
   2178000   206.88476      49.978955      19           
   2179000   283.81805      69.36021       23           
   2180000   199.31792      48.835409      18           
   2181000   166.12175      40.599304      15           
   2182000   168.22547      41.062417      12           
   2183000   252.79057      61.901439      18           
   2184000   236.71864      57.695941      17           
   2185000   175.40565      43.031825      12           
   2186000   157.6805       38.612137      12           
   2187000   171.89184      41.06101       20           
   2188000   182.7725       44.808834      13           
   2189000   210.95482      51.4522        13           
   2190000   185.90562      45.61626       17           
   2191000   119.48228      29.28222       14           
   2192000   145.60127      35.668378      12           
   2193000   205.605        50.32291       17           
   2194000   297.51863      72.795261      17           
   2195000   200.19052      48.260553      21           
   2196000   156.7915       38.473646      9            
   2197000   193.58178      46.964585      20           
   2198000   165.00996      40.322173      14           
   2199000   165.97468      40.340293      17           
   2200000   200.94751      49.22835       17           
   2201000   107.44745      26.353053      13           
   2202000   170.64596      41.49043       12           
   2203000   167.57333      41.114901      11           
   2204000   154.17086      37.809658      10           
   2205000   200.57251      49.013359      17           
   2206000   120.83775      29.62768       12           
   2207000   323.72134      78.752655      23           
   2208000   170.90681      41.902255      13           
   2209000   229.81278      55.956814      23           
   2210000   167.71729      40.126428      14           
   2211000   177.35239      45.693121      13           
   2212000   301.76362      73.56469       16           
   2213000   201.13471      50.013343      21           
   2214000   181.25775      43.572909      13           
   2215000   166.5596       40.858394      10           
   2216000   171.71925      41.548451      15           
   2217000   326.21342      79.477491      20           
   2218000   233.97129      55.559203      22           
   2219000   146.67343      35.893943      16           
   2220000   189.35994      46.43069       14           
   2221000   141.83967      34.702446      15           
   2222000   272.36438      66.15227       16           
   2223000   179.49454      43.289664      17           
   2224000   166.74005      40.517421      14           
   2225000   221.95844      53.750967      19           
   2226000   196.11152      46.44155       21           
   2227000   149.5143       36.126121      10           
   2228000   203.45859      49.751377      19           
   2229000   161.20819      39.379977      17           
   2230000   166.19119      40.645473      16           
   2231000   340.32101      82.902688      15           
   2232000   181.82248      44.281986      22           
   2233000   170.35496      41.406819      19           
   2234000   91.221061      22.317181      9            
   2235000   206.57114      50.389008      16           
   2236000   262.49676      64.385624      11           
   2237000   198.68859      47.138513      16           
   2238000   179.05283      43.512614      23           
   2239000   174.91465      42.779972      9            
   2240000   204.20234      49.851791      19           
   2241000   188.58304      45.130941      17           
   2242000   166.07274      40.444858      17           
   2243000   155.5503       37.834068      12           
   2244000   152.77941      37.326842      16           
   2245000   154.00184      37.772517      14           
   2246000   230.86817      56.421222      17           
   2247000   248.71825      59.546508      20           
   2248000   214.75485      52.55287       17           
   2249000   158.57712      38.805149      13           
   2250000   151.40595      36.578249      10           
   2251000   316.72773      76.610468      22           
   2252000   171.16426      41.956255      14           
   2253000   194.51117      47.623689      16           
   2254000   192.4792       47.04606       18           
   2255000   237.13705      58.143399      16           
   2256000   319.11808      77.44604       18           
   2257000   158.92591      38.949626      13           
   2258000   201.86391      49.184869      20           
   2259000   171.29592      39.693084      26           
   2260000   203.90866      50.010561      17           
   2261000   195.85582      47.164199      17           
   2262000   163.33281      40.01695       10           
   2263000   208.94649      51.225183      21           
   2264000   174.37277      42.512738      10           
   2265000   306.7653       74.74027       18           
   2266000   320.9847       78.351677      15           
   2267000   177.49399      43.365135      18           
   2268000   161.64277      39.599301      9            
   2269000   125.67434      30.832284      9            
   2270000   126.47853      31.016005      15           
   2271000   188.74838      45.849381      14           
   2272000   231.95132      55.332799      20           
   2273000   195.83162      47.791162      16           
   2274000   200.73831      47.188493      17           
   2275000   213.60438      51.733166      21           
   2276000   172.17522      41.803745      9            
   2277000   187.73995      45.854748      20           
   2278000   170.0985       41.727642      15           
   2279000   256.60866      60.790095      23           
   2280000   199.71279      48.669956      17           
   2281000   188.71392      45.998217      20           
   2282000   232.82492      56.848256      16           
   2283000   278.3836       67.810323      18           
   2284000   145.17817      35.602125      12           
   2285000   160.49042      39.31736       12           
   2286000   194.6226       47.751395      10           
   2287000   138.46503      33.75097       8            
   2288000   264.33893      63.602768      15           
   2289000   305.1615       72.7488        24           
   2290000   128.30057      31.449437      9            
   2291000   150.88839      36.753695      10           
   2292000   248.76643      60.117249      20           
   2293000   322.08449      78.460634      17           
   2294000   169.6291       40.706222      20           
   2295000   220.27228      53.878589      13           
   2296000   288.9489       70.905984      13           
   2297000   199.99983      47.888898      17           
   2298000   310.68948      75.54603       18           
   2299000   309.6905       75.804421      15           
   2300000   219.27345      52.774049      20           
   2301000   215.35847      52.301548      18           
   2302000   181.83838      44.025775      10           
   2303000   122.83902      30.124273      11           
   2304000   175.78642      43.08969       15           
   2305000   172.96758      42.384331      16           
   2306000   189.15048      44.570653      29           
   2307000   317.47636      77.790401      22           
   2308000   178.15685      43.692621      15           
   2309000   220.10281      52.692915      25           
   2310000   291.21269      71.195164      14           
   2311000   193.09158      46.50432       14           
   2312000   235.36955      56.99669       17           
   2313000   97.028745      23.767096      11           
   2314000   223.67306      54.791058      18           
   2315000   235.38775      57.192222      16           
   2316000   179.19867      43.475826      14           
   2317000   256.54613      61.564679      21           
   2318000   147.26735      36.117012      14           
   2319000   68.304382      16.761232      5            
   2320000   172.34241      42.239894      16           
   2321000   282.98209      69.267291      21           
   2322000   248.65114      60.170443      16           
   2323000   187.26205      45.076971      18           
   2324000   181.73163      44.584317      12           
   2325000   188.2895       45.495994      17           
   2326000   232.61742      56.395739      13           
   2327000   158.98233      38.717747      13           
   2328000   185.31864      45.303796      19           
   2329000   274.45919      65.324647      26           
   2330000   166.35872      40.742194      20           
   2331000   182.33161      44.478175      19           
   2332000   223.58952      53.342091      21           
   2333000   250.83413      60.352012      19           
   2334000   201.52141      47.672962      22           
   2335000   170.457        41.760396      20           
   2336000   227.96157      54.928205      14           
   2337000   165.91873      40.682009      14           
   2338000   163.40336      38.534347      18           
   2339000   170.16202      41.363319      21           
   2340000   181.81802      44.551574      17           
   2341000   177.75908      43.527432      18           
   2342000   172.85409      42.40126       12           
   2343000   138.13695      33.580722      15           
   2344000   292.35943      70.999913      17           
   2345000   197.41872      48.073564      26           
   2346000   202.10701      49.518296      17           
   2347000   180.15226      44.147882      18           
   2348000   216.95023      53.195366      18           
   2349000   175.9973       42.686122      21           
   2350000   109.74085      24.840273      18           
   2351000   147.09605      35.648849      18           
   2352000   228.36419      55.785825      15           
   2353000   188.78772      46.238155      19           
   2354000   198.84718      48.781701      12           
   2355000   154.42176      37.692459      16           
   2356000   204.15943      50.083015      18           
   2357000   222.41436      53.302181      15           
   2358000   316.53267      76.626658      13           
   2359000   176.56339      43.233963      13           
   2360000   124.47309      30.54666       10           
   2361000   162.1914       38.348005      20           
   2362000   218.60056      53.513091      13           
   2363000   180.26798      43.249126      16           
   2364000   166.83548      40.461704      23           
   2365000   217.70658      53.207111      15           
   2366000   155.37423      37.940178      15           
   2367000   166.07848      40.72072       12           
   2368000   197.27292      48.267043      14           
   2369000   189.40743      46.463626      16           
   2370000   162.68434      38.585944      16           
   2371000   355.63837      86.483357      23           
   2372000   275.84886      67.697559      17           
   2373000   152.74816      37.466729      14           
   2374000   193.74658      46.96275       14           
   2375000   110.91477      27.19545       7            
   2376000   210.40894      51.604907      15           
   2377000   209.2396       51.093517      18           
   2378000   199.33173      48.664442      14           
   2379000   134.21668      32.693016      16           
   2380000   187.86744      45.803398      19           
   2381000   224.26966      54.959836      15           
   2382000   248.58704      60.941004      11           
   2383000   144.04943      35.295061      13           
   2384000   199.0637       48.797337      19           
   2385000   189.9619       45.781897      20           
   2386000   331.90401      81.091982      17           
   2387000   160.45212      39.328249      10           
   2388000   238.00976      58.059951      19           
   2389000   161.85517      39.522408      14           
   2390000   213.37279      52.354333      11           
   2391000   228.29174      55.707512      18           
   2392000   236.88552      58.00462       16           
   2393000   287.26287      68.532522      14           
   2394000   108.25766      26.563665      7            
   2395000   195.81164      47.494647      18           
   2396000   334.25168      81.710965      18           
   2397000   186.06106      45.618349      11           
   2398000   146.56312      35.232237      17           
   2399000   268.26828      65.697037      17           
   2400000   190.90493      46.426304      23           
   2401000   199.33687      47.931391      19           
   2402000   239.80099      58.438794      26           
   2403000   225.61796      53.719552      29           
   2404000   217.59632      53.207488      15           
   2405000   309.75955      75.972058      17           
   2406000   202.83683      49.737111      10           
   2407000   192.37695      47.202861      17           
   2408000   153.87883      37.369907      17           
   2409000   194.45171      47.625195      16           
   2410000   172.82582      42.409376      7            
   2411000   169.65118      40.641816      17           
   2412000   291.50398      69.157089      23           
   2413000   255.15759      62.583963      11           
   2414000   178.14679      42.955217      19           
   2415000   118.29823      29.000376      17           
   2416000   262.51251      64.1162        18           
   2417000   202.35868      49.068501      22           
   2418000   330.09499      80.116528      24           
   2419000   142.84592      35.031343      10           
   2420000   196.96273      48.198527      13           
   2421000   152.44355      36.768674      24           
   2422000   180.49381      44.225349      12           
   2423000   195.21053      47.847425      15           
   2424000   148.41426      36.290847      14           
   2425000   235.80226      57.63126       19           
   2426000   169.81322      41.388116      17           
   2427000   194.09538      47.061453      18           
   2428000   215.89841      52.473915      17           
   2429000   304.88414      74.768052      14           
   2430000   200.64141      49.133815      12           
   2431000   151.40705      37.003813      18           
   2432000   101.31306      24.831703      8            
   2433000   206.12819      50.457774      19           
   2434000   141.87692      34.433052      13           
   2435000   172.98208      42.441936      12           
   2436000   106.98389      26.014834      12           
   2437000   229.57541      55.479957      21           
   2438000   182.5684       44.778278      15           
   2439000   165.16657      40.522537      11           
   2440000   179.51918      43.77564       15           
   2441000   184.73593      45.267428      12           
   2442000   159.42448      39.048148      20           
   2443000   258.63         63.425515      20           
   2444000   191.80326      46.961356      18           
   2445000   220.01525      52.881161      13           
   2446000   140.32138      34.394084      8            
   2447000   197.42963      47.708667      19           
   2448000   292.44199      71.334759      16           
   2449000   278.42315      68.294003      17           
   2450000   198.39357      47.349064      19           
   2451000   261.45016      63.882026      11           
   2452000   152.04358      37.155162      10           
   2453000   200.90088      49.234564      19           
   2454000   206.94654      50.519005      14           
   2455000   180.15733      44.203174      12           
   2456000   170.23786      40.909304      15           
   2457000   199.46994      48.924802      13           
   2458000   269.78533      66.070867      10           
   2459000   266.71266      64.36304       13           
   2460000   238.49309      57.624749      21           
   2461000   194.99859      47.766312      18           
   2462000   326.30623      80.031601      16           
   2463000   321.02158      77.197203      19           
   2464000   213.70577      51.215587      21           
   2465000   307.05692      75.349425      7            
   2466000   204.00631      49.987749      15           
   2467000   202.38955      49.436464      21           
   2468000   158.5011       38.841182      25           
   2469000   181.93353      44.458174      15           
   2470000   259.84216      63.408391      16           
   2471000   201.59576      48.665151      16           
   2472000   158.34663      38.692156      13           
   2473000   218.57418      53.598707      15           
   2474000   204.86127      50.236649      14           
   2475000   91.553291      21.824435      7            
   2476000   195.58509      47.492892      14           
   2477000   190.03243      46.462054      16           
   2478000   241.33469      58.87686       20           
   2479000   200.37416      49.116642      16           
   2480000   185.25632      44.911208      18           
   2481000   231.10673      56.420921      18           
   2482000   179.96634      44.098414      15           
   2483000   229.41902      56.290973      12           
   2484000   121.51554      29.801077      10           
   2485000   166.81446      40.91801       16           
   2486000   301.45726      73.725671      22           
   2487000   120.68042      28.621226      15           
   2488000   229.63741      56.191355      17           
   2489000   182.87102      43.608913      20           
   2490000   317.74051      77.90976       16           
   2491000   175.03224      42.046876      15           
   2492000   215.60434      51.881031      25           
   2493000   167.12499      40.956259      12           
   2494000   89.372106      21.702225      9            
   2495000   194.88458      47.795358      12           
   2496000   207.65575      50.935952      17           
   2497000   159.03928      39.520999      17           
   2498000   165.52507      40.535517      18           
   2499000   89.259595      21.394718      13           
   2500000   177.60927      43.095957      15           
   2501000   319.32777      78.052273      21           
   2502000   180.22739      43.539975      16           
Loop time of 603.887 on 8 procs for 2500000 steps with 48 atoms

Performance: 357.683 ns/day, 0.067 hours/ns, 4139.848 timesteps/s, 198.713 katom-step/s
799.0% CPU use with 1 MPI tasks x 8 OpenMP threads

MPI task timing breakdown:
Section |  min time  |  avg time  |  max time  |%varavg| %total
---------------------------------------------------------------
Pair    | 7.9079     | 7.9079     | 7.9079     |   0.0 |  1.31
Bond    | 12.293     | 12.293     | 12.293     |   0.0 |  2.04
Kspace  | 459.89     | 459.89     | 459.89     |   0.0 | 76.15
Neigh   | 0.73748    | 0.73748    | 0.73748    |   0.0 |  0.12
Comm    | 2.729      | 2.729      | 2.729      |   0.0 |  0.45
Output  | 0.052224   | 0.052224   | 0.052224   |   0.0 |  0.01
Modify  | 119.25     | 119.25     | 119.25     |   0.0 | 19.75
Other   |            | 1.024      |            |       |  0.17

Nlocal:             48 ave          48 max          48 min
Histogram: 1 0 0 0 0 0 0 0 0 0
Nghost:            121 ave         121 max         121 min
Histogram: 1 0 0 0 0 0 0 0 0 0
Neighs:            140 ave         140 max         140 min
Histogram: 1 0 0 0 0 0 0 0 0 0

Total # of neighbors = 140
Ave neighs/atom = 2.9166667
Ave special neighs/atom = 2
Neighbor list builds = 332957
Dangerous builds = 0
Total wall time: 0:10:04
