LAMMPS (27 Jun 2024)
  using 8 OpenMP thread(s) per MPI task
package omp 0
using multi-threaded neighbor list subroutines
# LAMMPS input script by Simon Gravelle
# For LAMMPS tutorials, see https://lammpstutorials.github.io
# Last tested using the 27Jun2024 LAMMPS version

variable Nstep equal 2500000
variable mu_K equal -3800
variable mu_kcal_mol equal ${mu_K}*0.0019872041
variable mu_kcal_mol equal -3800*0.0019872041
print "mu equal ${mu_kcal_mol}"
mu equal -7.55137558
variable tfac equal 5.0/3.0
variable Nattempt equal 100

units real
boundary p p p
atom_style full
pair_style lj/cut/coul/long 12
kspace_style ewald 1.0e-5
bond_style harmonic
angle_style harmonic
pair_modify mix geometric
special_bonds lj 0.0 0.0 0.0 coul 0.0 0.0 0.0 angle yes

read_data box.data
Reading data file ...
  orthogonal box = (-12.5 -12.5 -12.5) to (12.5 12.5 12.5)
  1 by 1 by 1 MPI processor grid
  reading atom labelmap ...
  reading bond labelmap ...
  reading angle labelmap ...
  reading atoms ...
  75 atoms
  reading velocities ...
  75 velocities
  scanning bonds ...
  1 = max bonds/atom
  scanning angles ...
  1 = max angles/atom
  orthogonal box = (-12.5 -12.5 -12.5) to (12.5 12.5 12.5)
  1 by 1 by 1 MPI processor grid
  reading bonds ...
  50 bonds
  reading angles ...
  25 angles
Finding 1-2 1-3 1-4 neighbors ...
  special bond factors lj:    0        0        0       
  special bond factors coul:  0        0        0       
     2 = max # of 1-2 neighbors
     1 = max # of 1-3 neighbors
     1 = max # of 1-4 neighbors
  50 = # of 1-3 neighbors before angle trim
  50 = # of 1-3 neighbors after angle trim
     2 = max # of special neighbors
  special bonds CPU = 0.000 seconds
  read_data CPU = 0.012 seconds
labelmap atom 1 O 2 H
labelmap bond 1 O-H
labelmap angle 1 H-O-H

group H2O type O H
75 atoms in group H2O
include parm.lmp
# LAMMPS parameter file for H2O SPCE water model
# For conversion from K to kcal / mol, multiply
# by Boltzmann = 0.0019872041 kcal / (mol * K)

mass O 15.9994 # O
mass H 1.00784 # H

pair_coeff O O 0.15535 3.166
pair_coeff H H 0.0 1.0

bond_coeff O-H 0.0 1.0 # rigid

angle_coeff H-O-H 0.0 109.47 # rigid
molecule h2Omol H2O.mol
Read molecule template h2Omol:
# LAMMPS molecule file for carbondioxide
  1 molecules
  0 fragments
  3 atoms with max type 2
  2 bonds with max type 1
  1 angles with max type 1
  0 dihedrals with max type 0
  0 impropers with max type 0

fix mynvt H2O rigid/nvt/small molecule temp 300 300 100 mol h2Omol
  create bodies CPU = 0.001 seconds
  25 rigid bodies with 75 atoms
  1 = max distance from body owner to body atom
thermo 1000

run 2000

CITE-CITE-CITE-CITE-CITE-CITE-CITE-CITE-CITE-CITE-CITE-CITE-CITE

Your simulation uses code contributions which should be cited:

- Type Label Framework: https://doi.org/10.1021/acs.jpcb.3c08419

@Article{Gissinger24,
 author = {Jacob R. Gissinger, Ilia Nikiforov, Yaser Afshar, Brendon Waters, Moon-ki Choi, Daniel S. Karls, Alexander Stukowski, Wonpil Im, Hendrik Heinz, Axel Kohlmeyer, and Ellad B. Tadmor},
 title = {Type Label Framework for Bonded Force Fields in LAMMPS},
 journal = {J. Phys. Chem. B},
 year =    2024,
 volume =  128,
 number =  13,
 pages =   {3282–-3297}
}

CITE-CITE-CITE-CITE-CITE-CITE-CITE-CITE-CITE-CITE-CITE-CITE-CITE

Ewald initialization ...
  using 12-bit tables for long-range coulomb (src/kspace.cpp:342)
  G vector (1/distance) = 0.22469438
  estimated absolute RMS force accuracy = 0.0038172427
  estimated relative force accuracy = 1.1495513e-05
  KSpace vectors: actual max1d max3d = 257 5 665
                  kxmax kymax kzmax  = 5 5 5
Generated 1 of 1 mixed pair_coeff terms from geometric mixing rule
Last active /omp style is kspace_style ewald/omp
Neighbor list info ...
  update: every = 1 steps, delay = 0 steps, check = yes
  max neighbors/atom: 2000, page size: 100000
  master list distance cutoff = 14
  ghost atom cutoff = 14
  binsize = 7, bins = 4 4 4
  1 neighbor lists, perpetual/occasional/extra = 1 0 0
  (1) pair lj/cut/coul/long/omp, perpetual
      attributes: half, newton on, omp
      pair build: half/bin/newton/omp
      stencil: half/bin/3d
      bin: standard
Per MPI rank memory allocation (min/avg/max) = 26.58 | 26.58 | 26.58 Mbytes
   Step          Temp          E_pair         E_mol          TotEng         Press     
         0   0              1.2491558      0              1.2491558      43.713899    
      1000   279.04395     -21.99489       0              18.762184     -33.846059    
      2000   330.08069     -49.381587      0             -1.1701038     -108.78563    
Loop time of 0.249238 on 8 procs for 2000 steps with 75 atoms

Performance: 693.314 ns/day, 0.035 hours/ns, 8024.466 timesteps/s, 601.835 katom-step/s
795.2% CPU use with 1 MPI tasks x 8 OpenMP threads

MPI task timing breakdown:
Section |  min time  |  avg time  |  max time  |%varavg| %total
---------------------------------------------------------------
Pair    | 0.012607   | 0.012607   | 0.012607   |   0.0 |  5.06
Bond    | 0.009471   | 0.009471   | 0.009471   |   0.0 |  3.80
Kspace  | 0.15729    | 0.15729    | 0.15729    |   0.0 | 63.11
Neigh   | 0.0025522  | 0.0025522  | 0.0025522  |   0.0 |  1.02
Comm    | 0.0061794  | 0.0061794  | 0.0061794  |   0.0 |  2.48
Output  | 1.8043e-05 | 1.8043e-05 | 1.8043e-05 |   0.0 |  0.01
Modify  | 0.060105   | 0.060105   | 0.060105   |   0.0 | 24.12
Other   |            | 0.00101    |            |       |  0.41

Nlocal:             75 ave          75 max          75 min
Histogram: 1 0 0 0 0 0 0 0 0 0
Nghost:            633 ave         633 max         633 min
Histogram: 1 0 0 0 0 0 0 0 0 0
Neighs:           2028 ave        2028 max        2028 min
Histogram: 1 0 0 0 0 0 0 0 0 0

Total # of neighbors = 2028
Ave neighs/atom = 27.04
Ave special neighs/atom = 2
Neighbor list builds = 76
Dangerous builds = 0

fix fgcmc H2O gcmc 100 ${Nattempt} 0 0 65899 300 ${mu_kcal_mol} 0.1     mol h2Omol tfac_insert ${tfac} full_energy rigid mynvt
fix fgcmc H2O gcmc 100 100 0 0 65899 300 ${mu_kcal_mol} 0.1     mol h2Omol tfac_insert ${tfac} full_energy rigid mynvt
fix fgcmc H2O gcmc 100 100 0 0 65899 300 -7.55137558 0.1     mol h2Omol tfac_insert ${tfac} full_energy rigid mynvt
fix fgcmc H2O gcmc 100 100 0 0 65899 300 -7.55137558 0.1     mol h2Omol tfac_insert 1.66666666666667 full_energy rigid mynvt

variable oxygen atom "type==1"
group oxygen dynamic all var oxygen
dynamic group oxygen defined
variable nO equal count(oxygen)
fix myat1 all ave/time 100 1 100 v_nO file number_H2O.dat
variable density equal v_nO*(15.9994+2*1.008)/vol/6.022e23*(1e8)^3
fix myat2 all ave/time 100 1 100 v_density file density_H2O.dat
compute press all pressure thermo_temp
fix myat3 all ave/time 10 100 1000 c_press file pressure_H2O.dat
thermo_style custom step temp etotal v_nO

run ${Nstep}
run 2500000
Ewald initialization ...
  using 12-bit tables for long-range coulomb (src/kspace.cpp:342)
  G vector (1/distance) = 0.22469438
  estimated absolute RMS force accuracy = 0.0038172427
  estimated relative force accuracy = 1.1495513e-05
  KSpace vectors: actual max1d max3d = 257 5 665
                  kxmax kymax kzmax  = 5 5 5
Generated 1 of 1 mixed pair_coeff terms from geometric mixing rule
Last active /omp style is kspace_style ewald/omp
0 atoms in group FixGCMC:gcmc_exclusion_group:fgcmc
0 atoms in group FixGCMC:rotation_gas_atoms:fgcmc
WARNING: Neighbor exclusions used with KSpace solver may give inconsistent Coulombic energies (src/neighbor.cpp:658)
Per MPI rank memory allocation (min/avg/max) = 26.58 | 26.58 | 26.58 Mbytes
   Step          Temp          TotEng          v_nO     
      2000   330.08069     -1.1701038      25           
      3000   411.37878     -229.74026      46           
      4000   464.43541     -704.32737      90           
      5000   469.41046     -1250.4588      136          
      6000   493.12058     -1942.2241      191          
      7000   508.98025     -2513.0432      235          
      8000   457.54418     -3082.4696      273          
      9000   534.45158     -3540.8154      307          
     10000   403.36752     -3982.7413      331          
     11000   376.64743     -4236.543       347          
     12000   411.8938      -4455.6998      363          
     13000   318.95582     -4644.7866      371          
     14000   383.43072     -4928.1074      391          
     15000   393.36252     -5190.1908      410          
     16000   380.4223      -5365.9821      421          
     17000   385.56729     -5547.0608      431          
     18000   296.41712     -5692.4327      439          
     19000   367.96374     -5832.8807      449          
     20000   307.10797     -5925.6603      453          
     21000   262.92415     -6040.8726      459          
     22000   352.50387     -6129.6274      468          
     23000   323.73548     -6204.4286      472          
     24000   329.85851     -6282.1328      477          
     25000   294.64887     -6330.8571      480          
     26000   296.78977     -6419.081       485          
     27000   291.28192     -6495.1463      489          
     28000   327.55123     -6529.2703      491          
     29000   291.75099     -6540.2048      491          
     30000   276.16933     -6559.2728      491          
     31000   316.6467      -6573.8923      493          
     32000   290.55631     -6601.3522      494          
     33000   266.22789     -6617.7318      495          
     34000   348.54162     -6597.5055      495          
     35000   279.15259     -6623.5987      495          
     36000   308.33314     -6615.473       495          
     37000   291.85172     -6659.9113      498          
     38000   303.86629     -6681.291       500          
     39000   314.43192     -6690.0569      500          
     40000   301.46339     -6730.3727      503          
     41000   291.87145     -6738.1046      503          
     42000   324.3549      -6737.3607      503          
     43000   310.24347     -6752.8962      504          
     44000   298.4958      -6756.034       504          
     45000   277.95193     -6783.5203      506          
     46000   342.49688     -6780.804       507          
     47000   310.4689      -6795.2626      507          
     48000   294.73089     -6813.8048      508          
     49000   327.77766     -6819.9266      509          
     50000   319.06154     -6824.643       509          
     51000   324.46391     -6823.3392      509          
     52000   293.67077     -6828.4805      509          
     53000   291.94359     -6830.1045      509          
     54000   305.11583     -6828.9964      509          
     55000   300.68508     -6829.1478      509          
     56000   263.39844     -6847.8343      510          
     57000   287.73083     -6856.4701      511          
     58000   313.74072     -6846.025       511          
     59000   276.42031     -6900.6876      515          
     60000   328.68394     -6892.8543      515          
     61000   353.89649     -6917.3202      517          
     62000   294.60339     -6935.5303      517          
     63000   309.59568     -6929.4966      517          
     64000   291.16167     -6944.1628      518          
     65000   321.66794     -6941.1129      518          
     66000   287.40161     -6964.2219      519          
     67000   283.28132     -6977.8422      520          
     68000   251.73415     -6996.0303      520          
     69000   318.93747     -6984.3303      520          
     70000   307.4487      -6992.0493      520          
     71000   348.06596     -6994.2244      521          
     72000   278.71524     -7029.9435      522          
     73000   303.40267     -7024.6962      522          
     74000   284.09122     -7030.4267      522          
     75000   338.06334     -7019.079       522          
     76000   321.5863      -7043.9528      524          
     77000   278.40546     -7056.6174      524          
     78000   302.31117     -7060.3881      524          
     79000   281.17545     -7079.2487      525          
     80000   315.08652     -7074.8879      525          
     81000   288.62991     -7093.8942      526          
     82000   313.85099     -7092.8587      526          
     83000   299.2405      -7110.0603      527          
     84000   302.23035     -7104.0503      527          
     85000   278.90635     -7114.5444      527          
     86000   316.76785     -7102.0534      527          
     87000   318.7945      -7112.8073      528          
     88000   312.48272     -7116.017       528          
     89000   295.93131     -7125.7886      528          
     90000   286.85213     -7131.6712      528          
     91000   307.79376     -7122.3936      528          
     92000   256.64697     -7140.0662      528          
     93000   308.6423      -7123.0654      528          
     94000   328.88833     -7118.7607      528          
     95000   291.05013     -7148.6331      529          
     96000   326.41169     -7139.302       529          
     97000   315.89733     -7157.3247      530          
     98000   307.23221     -7171.5361      531          
     99000   334.03355     -7169.037       531          
    100000   325.84468     -7174.1461      531          
    101000   287.19324     -7191.983       532          
    102000   303.529       -7185.6759      532          
    103000   309.32848     -7196.3418      532          
    104000   296.80984     -7200.4062      532          
    105000   284.73025     -7202.4095      532          
    106000   313.02875     -7198.1745      532          
    107000   276.17778     -7207.2903      532          
    108000   298.75953     -7203.3979      532          
    109000   295.70826     -7198.7763      532          
    110000   326.90691     -7193.6447      532          
    111000   307.68838     -7199.5803      532          
    112000   292.06777     -7238.6606      535          
    113000   306.71573     -7244.0598      535          
    114000   314.51812     -7239.7694      535          
    115000   313.96212     -7241.8487      535          
    116000   296.81935     -7249.3553      535          
    117000   319.15429     -7252.9711      536          
    118000   277.61293     -7264.7523      536          
    119000   272.83906     -7262.0501      536          
    120000   319.19885     -7259.2689      537          
    121000   325.28403     -7265.6271      537          
    122000   291.12227     -7274.4175      537          
    123000   342.03842     -7262.4332      537          
    124000   352.24587     -7262.4124      537          
    125000   279.33305     -7283.9563      537          
    126000   290.55841     -7283.5329      537          
    127000   283.02912     -7286.7529      537          
    128000   307.03943     -7278.0603      537          
    129000   357.49383     -7262.1228      537          
    130000   290.37051     -7284.5979      537          
    131000   283.0491      -7284.5992      537          
    132000   278.9229      -7291.9852      537          
    133000   293.00717     -7290.3236      537          
    134000   339.80548     -7276.1809      537          
    135000   286.14745     -7290.0499      537          
    136000   304.44901     -7286.6865      537          
    137000   317.62448     -7289.1414      537          
    138000   283.65422     -7296.4876      537          
    139000   315.12502     -7284.261       537          
    140000   293.25068     -7296.027       537          
    141000   318.33627     -7307.0053      538          
    142000   320.77041     -7304.6383      538          
    143000   308.62629     -7308.2306      538          
    144000   314.96147     -7307.5226      538          
    145000   323.169       -7300.6491      538          
    146000   281.79311     -7339.0301      540          
    147000   304.76593     -7335.278       540          
    148000   331.50555     -7341.05        541          
    149000   256.488       -7360.3347      541          
    150000   308.65962     -7344.5451      541          
    151000   309.34437     -7346.9775      541          
    152000   298.43471     -7360.5785      542          
    153000   295.04409     -7361.8987      542          
    154000   278.69837     -7386.2827      543          
    155000   322.72011     -7383.1495      544          
    156000   317.72852     -7393.7068      544          
    157000   343.3294      -7384.4403      544          
    158000   270.19976     -7409.1697      544          
    159000   312.72306     -7392.2104      544          
    160000   305.12502     -7399.4137      544          
    161000   272.03175     -7407.9514      544          
    162000   303.07139     -7399.2876      544          
    163000   288.72975     -7401.4919      544          
    164000   333.29383     -7388.8328      544          
    165000   335.48084     -7395.473       544          
    166000   290.70091     -7410.9658      545          
    167000   298.52695     -7407.8793      545          
    168000   289.55108     -7413.0268      545          
    169000   283.19229     -7414.6117      545          
    170000   326.55743     -7400.7103      545          
    171000   307.52012     -7407.0739      545          
    172000   330.57806     -7402.1133      545          
    173000   289.00163     -7425.8937      546          
    174000   302.2712      -7430.0591      546          
    175000   295.87509     -7432.0797      546          
    176000   311.32801     -7427.5744      546          
    177000   305.16709     -7428.131       546          
    178000   310.31385     -7428.8415      546          
    179000   316.92187     -7427.3066      546          
    180000   303.0663      -7429.0662      546          
    181000   338.16048     -7421.8035      546          
    182000   282.61572     -7436.2107      546          
    183000   327.95479     -7427.8386      546          
    184000   258.86631     -7439.5911      546          
    185000   325.25763     -7425.1731      546          
    186000   303.96757     -7430.3725      546          
    187000   317.71255     -7427.6661      546          
    188000   308.42198     -7429.4639      546          
    189000   283.27994     -7433.3561      546          
    190000   274.43694     -7437.5009      546          
    191000   340.567       -7420.3707      546          
    192000   277.78897     -7448.7484      547          
    193000   295.33746     -7445.5905      547          
    194000   271.01977     -7453.1997      547          
    195000   288.6444      -7449.2069      547          
    196000   256.29419     -7455.735       547          
    197000   287.21316     -7442.7176      547          
    198000   287.57981     -7448.7019      547          
    199000   280.09452     -7444.7951      547          
    200000   313.91804     -7437.1914      547          
    201000   298.17234     -7445.3709      547          
    202000   313.43429     -7441.4751      547          
    203000   247.63274     -7459.2238      547          
    204000   299.30247     -7443.5419      547          
    205000   320.78182     -7442.9502      547          
    206000   311.05305     -7438.308       547          
    207000   283.79637     -7448.7433      547          
    208000   304.44745     -7449.3637      547          
    209000   306.51293     -7444.5262      547          
    210000   268.6276      -7467.1712      548          
    211000   349.54305     -7436.8769      548          
    212000   328.96972     -7450.5813      548          
    213000   288.83665     -7461.4747      548          
    214000   298.38329     -7456.2504      548          
    215000   297.68391     -7455.3159      548          
    216000   297.98247     -7456.8809      548          
    217000   324.82096     -7449.2786      548          
    218000   294.68723     -7458.3486      548          
    219000   272.23298     -7488.4994      550          
    220000   334.30465     -7470.5091      550          
    221000   316.84382     -7479.7162      550          
    222000   348.74108     -7467.8221      550          
    223000   289.55227     -7487.6779      550          
    224000   290.57248     -7492.6163      551          
    225000   285.72986     -7498.873       551          
    226000   302.59162     -7494.3464      551          
    227000   299.52376     -7498.4336      551          
    228000   268.23993     -7503.4234      551          
    229000   358.87295     -7480.7037      551          
    230000   305.08063     -7495.8203      551          
    231000   347.51995     -7481.4979      551          
    232000   272.79803     -7505.1785      551          
    233000   309.6038      -7493.7548      551          
    234000   299.26151     -7496.68        551          
    235000   294.92375     -7499.5101      551          
    236000   278.48545     -7499.1132      551          
    237000   332.62348     -7493.2446      551          
    238000   270.46384     -7505.0243      551          
    239000   339.48024     -7487.0971      551          
    240000   265.19334     -7505.8146      551          
    241000   288.90595     -7500.7426      551          
    242000   289.68809     -7499.2018      551          
    243000   239.71173     -7513.267       551          
    244000   320.85411     -7486.0725      551          
    245000   301.56178     -7498.1098      551          
    246000   326.53461     -7488.2755      551          
    247000   283.37494     -7503.1723      551          
    248000   311.7126      -7490.5894      551          
    249000   262.14693     -7505.8341      551          
    250000   309.51788     -7496.2697      551          
    251000   335.36341     -7488.6618      551          
    252000   287.44098     -7495.9869      551          
    253000   296.74299     -7495.2922      551          
    254000   351.68025     -7480.7179      551          
    255000   276.31745     -7507.7438      551          
    256000   323.90757     -7490.3674      551          
    257000   347.94452     -7485.0993      551          
    258000   306.99683     -7502.5666      551          
    259000   317.77482     -7497.8872      551          
    260000   303.65591     -7509.95        552          
    261000   301.0279      -7510.4769      552          
    262000   315.14943     -7504.0734      552          
    263000   310.35359     -7513.4841      552          
    264000   322.16522     -7510.185       552          
    265000   304.66954     -7521.9723      553          
    266000   360.60461     -7518.4938      554          
    267000   333.0491      -7544.6389      555          
    268000   301.47311     -7550.0392      555          
    269000   370.46857     -7529.2957      555          
    270000   283.08974     -7557.1248      555          
    271000   337.40045     -7542.6323      555          
    272000   260.27606     -7557.3731      555          
    273000   331.17887     -7542.6401      555          
    274000   323.27233     -7542.5405      555          
    275000   313.33578     -7541.898       555          
    276000   315.39792     -7540.8422      555          
    277000   243.26296     -7569.8839      555          
    278000   308.33516     -7552.6185      555          
    279000   280.15778     -7559.9939      555          
    280000   327.31441     -7543.7495      555          
    281000   281.35131     -7559.4078      555          
    282000   303.92126     -7554.4678      555          
    283000   272.51663     -7560.1607      555          
    284000   303.51556     -7556.5842      555          
    285000   305.35497     -7551.1198      555          
    286000   326.69737     -7547.0213      555          
    287000   300.17116     -7554.8778      555          
    288000   333.59649     -7544.4955      555          
    289000   299.26081     -7557.5415      555          
    290000   312.6994      -7552.6965      555          
    291000   293.84468     -7555.9551      555          
    292000   280.05756     -7559.1353      555          
    293000   333.10994     -7554.3925      556          
    294000   328.74231     -7559.7653      556          
    295000   318.83794     -7561.8292      556          
    296000   323.78442     -7557.4685      556          
    297000   339.13619     -7550.1682      556          
    298000   292.14396     -7568.5212      556          
    299000   296.98628     -7566.9719      556          
    300000   340.01477     -7550.4444      556          
    301000   285.94756     -7573.7879      556          
    302000   338.82293     -7558.5999      556          
    303000   254.89564     -7578.1575      556          
    304000   310.16527     -7566.9548      556          
    305000   277.61544     -7575.922       556          
    306000   283.00532     -7568.3513      556          
    307000   326.20234     -7562.6357      556          
    308000   286.55374     -7575.764       556          
    309000   328.25258     -7563.3263      556          
    310000   338.4677      -7560.846       556          
    311000   269.91029     -7579.4484      556          
    312000   323.41709     -7559.4962      556          
    313000   332.99992     -7565.1897      556          
    314000   292.68277     -7574.3059      556          
    315000   320.48616     -7560.8667      556          
    316000   256.28137     -7580.8317      556          
    317000   284.55039     -7575.5997      556          
    318000   281.29278     -7573.9168      556          
    319000   307.38455     -7567.5401      556          
    320000   291.57067     -7570.9962      556          
    321000   291.70949     -7578.6659      556          
    322000   279.82135     -7579.0196      556          
    323000   319.89636     -7568.1284      556          
    324000   278.33909     -7576.8409      556          
    325000   338.40133     -7553.2869      556          
    326000   316.41531     -7566.7309      556          
    327000   282.62614     -7575.6179      556          
    328000   295.22329     -7573.5041      556          
    329000   249.49341     -7584.3879      556          
    330000   300.74229     -7567.6176      556          
    331000   287.63081     -7574.3989      556          
    332000   328.02862     -7565.3462      556          
    333000   280.95467     -7583.6432      556          
    334000   340.04793     -7565.7485      556          
    335000   322.50481     -7565.6103      556          
    336000   289.88634     -7575.2378      556          
    337000   335.56595     -7560.8319      556          
    338000   273.31293     -7576.9745      556          
    339000   320.85797     -7569.4422      556          
    340000   267.94553     -7585.0467      556          
    341000   306.83162     -7572.6804      556          
    342000   354.8707      -7560.9756      556          
    343000   317.87813     -7567.5296      556          
    344000   277.20619     -7580.7436      556          
    345000   333.52681     -7566.6109      556          
    346000   289.475       -7576.6318      556          
    347000   335.83345     -7563.4664      556          
    348000   316.89698     -7569.5488      556          
    349000   258.69544     -7581.6837      556          
    350000   301.65659     -7574.3753      556          
    351000   291.9186      -7568.945       556          
    352000   283.91332     -7575.7208      556          
    353000   320.33939     -7569.3481      556          
    354000   307.34618     -7573.1857      556          
    355000   299.67353     -7575.247       556          
    356000   315.79423     -7568.0893      556          
    357000   261.13863     -7584.6091      556          
    358000   265.58606     -7585.1344      556          
    359000   327.79459     -7564.059       556          
    360000   318.03397     -7568.62        556          
    361000   328.16047     -7565.198       556          
    362000   309.90468     -7574.9466      556          
    363000   329.1904      -7562.8559      556          
    364000   266.83453     -7584.2957      556          
    365000   305.02445     -7576.081       556          
    366000   278.2815      -7584.3476      556          
    367000   305.72815     -7571.8462      556          
    368000   344.75532     -7565.4317      556          
    369000   300.04611     -7571.4907      556          
    370000   308.49897     -7570.2948      556          
    371000   311.62493     -7571.5022      556          
    372000   270.88435     -7581.178       556          
    373000   258.10378     -7589.0353      556          
    374000   341.15978     -7557.6164      556          
    375000   276.54061     -7580.8907      556          
    376000   312.52187     -7563.4727      556          
    377000   322.82184     -7570.5124      556          
    378000   293.62352     -7577.7529      556          
    379000   300.07982     -7570.501       556          
    380000   306.06152     -7569.184       556          
    381000   298.39844     -7574.0896      556          
    382000   316.54311     -7574.7714      556          
    383000   280.16554     -7577.8717      556          
    384000   341.53323     -7560.0904      556          
    385000   293.59141     -7581.4253      556          
    386000   285.41238     -7573.4998      556          
    387000   319.43739     -7565.9059      556          
    388000   298.27378     -7572.6487      556          
    389000   336.97916     -7564.1789      556          
    390000   295.45189     -7577.1633      556          
    391000   314.07756     -7566.9576      556          
    392000   334.50632     -7561.3132      556          
    393000   337.62123     -7568.3537      556          
    394000   317.19334     -7567.3223      556          
    395000   371.71284     -7553.8122      556          
    396000   276.60349     -7581.655       556          
    397000   303.81467     -7574.1329      556          
    398000   338.3469      -7560.0493      556          
    399000   326.30189     -7561.9064      556          
    400000   299.47487     -7576.1197      556          
    401000   283.76364     -7594.7974      557          
    402000   319.86307     -7585.5827      557          
    403000   343.93138     -7588.9265      558          
    404000   326.46247     -7592.2994      558          
    405000   306.94724     -7601.3158      558          
    406000   330.53696     -7593.7291      558          
    407000   296.805       -7603.6233      558          
    408000   298.88967     -7605.4582      558          
    409000   324.0392      -7603.3768      558          
    410000   289.43033     -7611.3319      558          
    411000   309.55125     -7601.2147      558          
    412000   283.94804     -7610.8631      558          
    413000   317.41275     -7603.019       558          
    414000   257.5149      -7617.77        558          
    415000   310.54956     -7600.3071      558          
    416000   242.88099     -7622.9896      558          
    417000   311.59939     -7605.6111      558          
    418000   293.0672      -7606.7825      558          
    419000   298.77782     -7607.4767      558          
    420000   351.98887     -7592.5208      558          
    421000   281.86373     -7624.8988      559          
    422000   337.07719     -7619.3548      560          
    423000   282.66639     -7633.1767      560          
    424000   279.20424     -7631.3987      560          
    425000   307.94107     -7625.5194      560          
    426000   267.76466     -7640.2231      560          
    427000   311.67183     -7625.7434      560          
    428000   303.45968     -7625.092       560          
    429000   283.35245     -7628.7032      560          
    430000   297.87947     -7632.0107      560          
    431000   251.22001     -7643.4001      560          
    432000   283.31056     -7630.9151      560          
    433000   298.02103     -7631.237       560          
    434000   324.85924     -7622.8865      560          
    435000   284.66154     -7633.243       560          
    436000   319.69662     -7619.1458      560          
    437000   253.54527     -7643.9247      560          
    438000   333.80471     -7620.8986      560          
    439000   274.72637     -7637.6429      560          
    440000   289.97668     -7630.0079      560          
    441000   290.468       -7630.7748      560          
    442000   291.1716      -7630.7813      560          
    443000   280.84363     -7633.7221      560          
    444000   326.838       -7623.0766      560          
    445000   279.83031     -7636.5419      560          
    446000   327.60521     -7623.581       560          
    447000   268.50485     -7640.6334      560          
    448000   286.57777     -7629.4023      560          
    449000   346.74256     -7617.3632      560          
    450000   275.00717     -7641.416       560          
    451000   326.78388     -7619.2973      560          
    452000   296.83433     -7626.4791      560          
    453000   319.03168     -7619.8491      560          
    454000   275.38681     -7635.7222      560          
    455000   316.70546     -7624.2693      560          
    456000   312.63078     -7628.7945      560          
    457000   294.75577     -7633.9244      560          
    458000   343.31404     -7618.9561      560          
    459000   311.0236      -7627.0435      560          
    460000   315.32812     -7625.0862      560          
    461000   309.44548     -7624.2499      560          
    462000   297.05348     -7627.3128      560          
    463000   286.96736     -7630.9973      560          
    464000   300.27243     -7631.0066      560          
    465000   291.03786     -7630.5918      560          
    466000   340.17884     -7618.2786      560          
    467000   309.19307     -7624.1704      560          
    468000   318.42091     -7623.1255      560          
    469000   287.8289      -7633.4329      560          
    470000   321.71406     -7621.8685      560          
    471000   348.27236     -7617.6635      560          
    472000   286.93669     -7630.3603      560          
    473000   340.60051     -7619.3131      560          
    474000   247.4547      -7640.1948      560          
    475000   303.60692     -7623.2048      560          
    476000   306.96604     -7635.7053      560          
    477000   327.56667     -7620.3628      560          
    478000   347.41151     -7615.3289      560          
    479000   291.45728     -7632.831       560          
    480000   322.53385     -7621.7536      560          
    481000   276.55409     -7636.9521      560          
    482000   312.77367     -7623.0974      560          
    483000   332.62043     -7623.7312      560          
    484000   342.23905     -7620.4732      560          
    485000   288.83633     -7630.6554      560          
    486000   311.22617     -7623.6995      560          
    487000   287.39553     -7629.9888      560          
    488000   266.23889     -7639.7739      560          
    489000   324.29682     -7620.4438      560          
    490000   369.61798     -7611.13        560          
    491000   330.60508     -7621.508       560          
    492000   300.88224     -7629.4689      560          
    493000   297.11036     -7632.6562      560          
    494000   301.08331     -7627.0501      560          
    495000   327.23549     -7620.32        560          
    496000   280.45144     -7630.3566      560          
    497000   341.91928     -7619.5222      560          
    498000   301.1776      -7632.3035      560          
    499000   270.00946     -7638.6017      560          
    500000   341.44916     -7616.6497      560          
    501000   292.88559     -7628.3124      560          
    502000   310.23779     -7634.8668      561          
    503000   284.47807     -7646.2279      561          
    504000   310.41784     -7641.4993      561          
    505000   325.20765     -7635.1656      561          
    506000   329.99415     -7635.7317      561          
    507000   272.03885     -7653.3259      561          
    508000   305.92676     -7642.7666      561          
    509000   299.43572     -7641.0501      561          
    510000   327.29427     -7634.9242      561          
    511000   322.56761     -7635.7588      561          
    512000   342.23509     -7632.4245      561          
    513000   297.05005     -7645.6222      561          
    514000   348.7737      -7628.7447      561          
    515000   340.30979     -7633.0053      561          
    516000   298.86546     -7644.911       561          
    517000   330.80208     -7639.9144      561          
    518000   311.07672     -7635.2979      561          
    519000   306.11723     -7644.6705      561          
    520000   274.76077     -7651.0858      561          
    521000   321.61628     -7637.6002      561          
    522000   313.53205     -7637.7396      561          
    523000   326.67793     -7634.9772      561          
    524000   300.62997     -7644.7192      561          
    525000   318.8994      -7638.9076      561          
    526000   322.62378     -7636.3294      561          
    527000   278.49298     -7647.7591      561          
    528000   267.81365     -7653.4375      561          
    529000   304.32846     -7641.2324      561          
    530000   251.9089      -7658.0227      561          
    531000   324.27471     -7632.1585      561          
    532000   298.07942     -7640.56        561          
    533000   362.21431     -7625.887       561          
    534000   247.23977     -7657.8469      561          
    535000   317.62564     -7641.7038      561          
    536000   285.57664     -7647.2643      561          
    537000   354.16967     -7623.1035      561          
    538000   301.65465     -7644.9002      561          
    539000   307.85557     -7640.1112      561          
    540000   323.28851     -7634.4031      561          
    541000   326.44934     -7637.6282      561          
    542000   327.57406     -7635.8212      561          
    543000   297.66881     -7639.719       561          
    544000   294.06337     -7647.6715      561          
    545000   333.6852      -7628.2984      561          
    546000   280.21733     -7650.7125      561          
    547000   297.62111     -7643.7318      561          
    548000   348.70411     -7628.141       561          
    549000   318.40216     -7638.2145      561          
    550000   295.28702     -7648.4492      561          
    551000   330.73718     -7647.5121      562          
    552000   287.9882      -7656.8572      562          
    553000   296.32092     -7652.9446      562          
    554000   311.65382     -7655.3958      562          
    555000   276.83273     -7660.7598      562          
    556000   317.66343     -7648.2745      562          
    557000   332.54682     -7643.5914      562          
    558000   297.55625     -7655.3769      562          
    559000   272.64089     -7664.4224      562          
    560000   303.93073     -7654.6574      562          
    561000   277.33203     -7657.1981      562          
    562000   290.03918     -7655.8947      562          
    563000   315.92971     -7651.2212      562          
    564000   349.46872     -7644.0705      562          
    565000   262.45507     -7664.6713      562          
    566000   340.32261     -7638.0176      562          
    567000   297.99416     -7653.5165      562          
    568000   331.79511     -7644.2297      562          
    569000   321.68723     -7648.4854      562          
    570000   284.78344     -7658.2334      562          
    571000   317.18039     -7649.2979      562          
    572000   271.409       -7665.2775      562          
    573000   323.73738     -7649.5997      562          
    574000   288.7552      -7655.0252      562          
    575000   307.3713      -7652.0406      562          
    576000   288.54766     -7658.5998      562          
    577000   329.61919     -7649.822       562          
    578000   284.36267     -7662.1066      562          
    579000   360.81767     -7636.293       562          
    580000   312.67093     -7649.0653      562          
    581000   299.20551     -7665.8635      563          
    582000   308.6848      -7661.385       563          
    583000   276.66866     -7668.8206      563          
    584000   260.72377     -7676.3953      563          
    585000   303.6372      -7665.4342      563          
    586000   303.97376     -7663.2039      563          
    587000   306.86778     -7670.2333      563          
    588000   321.58082     -7667.4894      563          
    589000   309.11016     -7665.3346      563          
    590000   257.28015     -7678.8534      563          
    591000   352.34994     -7658.2433      563          
    592000   283.75068     -7671.0942      563          
    593000   319.76299     -7664.33        563          
    594000   268.37008     -7679.738       563          
    595000   285.84515     -7673.9783      563          
    596000   304.80746     -7669.9423      563          
    597000   308.39821     -7667.1505      563          
    598000   314.52876     -7670.794       563          
    599000   326.73633     -7667.0932      563          
    600000   277.57677     -7675.7612      563          
    601000   260.09853     -7676.32        563          
    602000   321.08666     -7667.0577      563          
    603000   277.66287     -7675.947       563          
    604000   263.74082     -7678.1518      563          
    605000   296.24928     -7670.3375      563          
    606000   335.17292     -7664.5534      563          
    607000   274.58291     -7680.5501      563          
    608000   300.46175     -7670.2074      563          
    609000   276.0089      -7679.4861      563          
    610000   290.13239     -7675.8939      563          
    611000   293.1804      -7670.027       563          
    612000   314.80517     -7665.0225      563          
    613000   297.81419     -7669.9599      563          
    614000   296.79879     -7674.005       563          
    615000   312.92987     -7664.1258      563          
    616000   299.6181      -7669.4441      563          
    617000   282.35213     -7681.2805      563          
    618000   296.2292      -7674.1583      563          
    619000   276.60561     -7676.966       563          
    620000   300.68143     -7669.8977      563          
    621000   294.61236     -7674.4977      563          
    622000   298.84434     -7668.9476      563          
    623000   277.13929     -7678.1648      563          
    624000   291.93606     -7674.2723      563          
    625000   305.38144     -7669.2728      563          
    626000   276.39245     -7682.9987      563          
    627000   306.29986     -7668.51        563          
    628000   276.25523     -7680.4542      563          
    629000   320.86        -7666.6271      563          
    630000   343.63215     -7661.0641      563          
    631000   336.30007     -7664.3574      563          
    632000   288.4146      -7674.9977      563          
    633000   309.84405     -7667.5141      563          
    634000   251.30264     -7686.9856      563          
    635000   325.31415     -7664.4562      563          
    636000   302.96615     -7687.6903      564          
    637000   333.60799     -7675.5048      564          
    638000   266.69384     -7691.4478      564          
    639000   287.43565     -7689.197       564          
    640000   336.30677     -7677.7932      564          
    641000   302.58253     -7682.164       564          
    642000   318.41103     -7678.408       564          
    643000   301.42511     -7682.4457      564          
    644000   306.53002     -7683.2414      564          
    645000   304.31523     -7687.9147      564          
    646000   302.49015     -7680.912       564          
    647000   298.48856     -7680.893       564          
    648000   314.59215     -7680.7263      564          
    649000   292.51257     -7688.6164      564          
    650000   289.27958     -7687.6793      564          
    651000   305.04467     -7684.3225      564          
    652000   307.72461     -7678.7984      564          
    653000   257.77094     -7697.6492      564          
    654000   285.8318      -7692.8009      564          
    655000   317.59268     -7676.1062      564          
    656000   289.71106     -7687.0819      564          
    657000   289.32683     -7684.2751      564          
    658000   345.39618     -7674.8364      564          
    659000   305.69662     -7685.0543      564          
    660000   335.54815     -7674.593       564          
    661000   297.23524     -7684.7728      564          
    662000   308.31656     -7682.8645      564          
    663000   290.12338     -7690.5274      564          
    664000   280.76836     -7691.1673      564          
    665000   289.21065     -7686.3755      564          
    666000   311.14008     -7684.424       564          
    667000   320.51013     -7677.5693      564          
    668000   283.93111     -7691.5805      564          
    669000   335.07619     -7677.5895      564          
    670000   283.72935     -7691.0085      564          
    671000   290.02975     -7689.4458      564          
    672000   272.30241     -7692.1469      564          
    673000   314.61903     -7681.2714      564          
    674000   283.79519     -7687.9052      564          
    675000   316.30141     -7682.0728      564          
    676000   312.01626     -7676.8063      564          
    677000   333.56036     -7676.0599      564          
    678000   327.59082     -7674.5041      564          
    679000   280.38286     -7696.3183      564          
    680000   316.99049     -7680.6891      564          
    681000   288.28473     -7689.944       564          
    682000   320.42111     -7679.1852      564          
    683000   274.49627     -7694.5771      564          
    684000   345.98983     -7670.3397      564          
    685000   278.12684     -7703.5892      565          
    686000   321.86928     -7688.9358      565          
    687000   303.90426     -7696.8945      565          
    688000   280.58712     -7707.3816      565          
    689000   282.27667     -7705.2221      565          
    690000   301.2834      -7697.5642      565          
    691000   310.74744     -7692.4896      565          
    692000   278.9492      -7704.7585      565          
    693000   307.7162      -7698.932       565          
    694000   280.55572     -7703.91        565          
    695000   331.4639      -7689.8906      565          
    696000   297.93133     -7700.622       565          
    697000   341.44154     -7690.987       565          
    698000   297.96956     -7717.823       566          
    699000   340.53544     -7700.8248      566          
    700000   278.82425     -7717.7237      566          
    701000   324.78922     -7707.3675      566          
    702000   274.21054     -7720.8107      566          
    703000   302.60211     -7712.4727      566          
    704000   291.21227     -7715.4244      566          
    705000   317.85701     -7707.1448      566          
    706000   286.71761     -7718.0841      566          
    707000   254.8557      -7720.8037      566          
    708000   317.80857     -7709.1651      566          
    709000   239.59335     -7733.4052      566          
    710000   308.26321     -7713.1035      566          
    711000   300.21014     -7711.034       566          
    712000   299.6635      -7711.162       566          
    713000   282.35442     -7720.3859      566          
    714000   309.31382     -7711.7694      566          
    715000   344.89924     -7697.5654      566          
    716000   296.44837     -7711.4692      566          
    717000   331.92361     -7704.2865      566          
    718000   296.41154     -7715.7114      566          
    719000   273.3076      -7722.2076      566          
    720000   356.24795     -7699.3579      566          
    721000   301.70896     -7708.4269      566          
    722000   296.88503     -7708.5069      566          
    723000   337.04571     -7702.2481      566          
    724000   301.00764     -7714.3706      566          
    725000   315.28602     -7707.7051      566          
    726000   281.69994     -7717.4615      566          
    727000   333.85615     -7704.1264      566          
    728000   343.67864     -7697.821       566          
    729000   287.99664     -7718.2394      566          
    730000   336.30259     -7705.7704      566          
    731000   266.57807     -7720.4883      566          
    732000   278.22652     -7715.7578      566          
    733000   282.93028     -7714.7568      566          
    734000   279.93029     -7719.3333      566          
    735000   288.28302     -7722.1159      566          
    736000   276.38844     -7724.4188      566          
    737000   303.85884     -7710.8946      566          
    738000   314.39235     -7708.1578      566          
    739000   305.1439      -7712.7183      566          
    740000   287.84509     -7734.807       567          
    741000   327.2142      -7723.5204      567          
    742000   266.09117     -7738.2465      567          
    743000   311.39375     -7729.5197      567          
    744000   289.48021     -7732.4978      567          
    745000   336.35911     -7723.6505      567          
    746000   291.96319     -7728.3714      567          
    747000   242.72008     -7745.5686      567          
    748000   312.6798      -7728.3952      567          
    749000   279.91455     -7735.6653      567          
    750000   306.5984      -7728.079       567          
    751000   339.78128     -7719.4257      567          
    752000   354.53735     -7715.4059      567          
    753000   274.86566     -7736.1735      567          
    754000   327.92966     -7724.2777      567          
    755000   266.11442     -7736.9729      567          
    756000   284.37901     -7732.1001      567          
    757000   273.42709     -7735.8426      567          
    758000   297.66791     -7727.7554      567          
    759000   274.9109      -7740.4585      567          
    760000   325.3334      -7723.8537      567          
    761000   260.80428     -7738.5887      567          
    762000   362.32748     -7713.4614      567          
    763000   261.83581     -7743.5882      567          
    764000   357.77037     -7726.1698      568          
    765000   294.52263     -7739.9582      568          
    766000   308.77591     -7739.8755      568          
    767000   311.79994     -7741.7523      568          
    768000   244.64561     -7760.4195      568          
    769000   345.86478     -7728.1502      568          
    770000   266.24012     -7751.1015      568          
    771000   326.38878     -7731.2506      568          
    772000   271.89502     -7752.7931      568          
    773000   313.82844     -7733.4292      568          
    774000   308.85881     -7742.3375      568          
    775000   345.29429     -7731.9084      568          
    776000   320.43057     -7735.7081      568          
    777000   294.608       -7744.7968      568          
    778000   364.42626     -7727.0357      568          
    779000   304.3641      -7738.4531      568          
    780000   317.66345     -7732.3645      568          
    781000   260.17762     -7754.1041      568          
    782000   303.57591     -7740.8         568          
    783000   257.69319     -7754.6268      568          
    784000   311.09553     -7738.9343      568          
    785000   319.79476     -7735.8008      568          
    786000   269.46603     -7749.381       568          
    787000   318.50116     -7735.9156      568          
    788000   301.2276      -7742.5536      568          
    789000   316.69133     -7738.4805      568          
    790000   337.4492      -7732.0792      568          
    791000   296.83558     -7742.5976      568          
    792000   299.48176     -7742.5998      568          
    793000   331.18507     -7734.5849      568          
    794000   268.40301     -7752.6208      568          
    795000   303.7563      -7740.0687      568          
    796000   303.25953     -7742.3214      568          
    797000   295.11711     -7745.0605      568          
    798000   330.19945     -7732.4593      568          
    799000   274.98665     -7748.2198      568          
    800000   305.08078     -7740.7665      568          
    801000   326.39135     -7733.6027      568          
    802000   318.76238     -7737.6163      568          
    803000   273.32559     -7749.8933      568          
    804000   322.0063      -7736.7306      568          
    805000   281.45868     -7747.4884      568          
    806000   313.89284     -7741.0117      568          
    807000   273.9644      -7747.3118      568          
    808000   269.09066     -7751.4715      568          
    809000   313.13749     -7740.1074      568          
    810000   299.99744     -7743.1316      568          
    811000   346.5371      -7730.1383      568          
    812000   273.73062     -7750.5615      568          
    813000   297.15706     -7743.3135      568          
    814000   346.74335     -7728.7308      568          
    815000   310.02208     -7738.0226      568          
    816000   286.06659     -7748.4694      568          
    817000   340.13802     -7735.0877      568          
    818000   277.14631     -7750.9332      568          
    819000   303.979       -7738.4165      568          
    820000   299.35389     -7744.1975      568          
    821000   320.43133     -7734.7877      568          
    822000   282.63519     -7759.2666      569          
    823000   306.10438     -7747.657       569          
    824000   294.08907     -7753.0965      569          
    825000   272.80455     -7761.4697      569          
    826000   360.65136     -7733.8751      569          
    827000   307.90985     -7751.869       569          
    828000   312.02687     -7743.9122      569          
    829000   284.38465     -7757.7579      569          
    830000   339.48523     -7743.0317      569          
    831000   290.27575     -7755.3818      569          
    832000   326.14325     -7743.6295      569          
    833000   342.47542     -7746.7056      569          
    834000   320.82001     -7750.1912      569          
    835000   311.36728     -7748.8269      569          
    836000   328.92931     -7742.2691      569          
    837000   329.45483     -7746.7632      569          
    838000   288.67161     -7756.9773      569          
    839000   351.27718     -7740.0166      569          
    840000   322.41743     -7749.7296      569          
    841000   314.70185     -7751.4144      569          
    842000   340.46473     -7744.7193      569          
    843000   284.40952     -7757.1976      569          
    844000   313.97251     -7744.6554      569          
    845000   257.93679     -7767.6592      569          
    846000   268.65327     -7760.2281      569          
    847000   286.77959     -7756.3344      569          
    848000   280.87416     -7759.3616      569          
    849000   288.58456     -7756.2226      569          
    850000   269.57175     -7765.5794      569          
    851000   324.2456      -7743.7386      569          
    852000   286.12966     -7755.5448      569          
    853000   315.00455     -7752.3724      569          
    854000   311.22378     -7751.0782      569          
    855000   285.15216     -7757.5886      569          
    856000   333.05728     -7746.5801      569          
    857000   292.74862     -7754.5923      569          
    858000   272.3243      -7760.9674      569          
    859000   304.78078     -7751.0794      569          
    860000   323.09699     -7745.3379      569          
    861000   324.70668     -7746.0838      569          
    862000   323.06908     -7744.7704      569          
    863000   295.93746     -7751.396       569          
    864000   299.88196     -7753.8405      569          
    865000   310.60791     -7751.5219      569          
    866000   287.6617      -7755.67        569          
    867000   298.07764     -7751.7112      569          
    868000   344.18584     -7740.5836      569          
    869000   303.34354     -7748.5743      569          
    870000   308.29553     -7752.5882      569          
    871000   302.01202     -7753.5597      569          
    872000   317.99939     -7745.1251      569          
    873000   312.40581     -7749.8974      569          
    874000   266.72506     -7763.2043      569          
    875000   297.62255     -7755.016       569          
    876000   291.2802      -7753.8805      569          
    877000   390.01877     -7731.7962      569          
    878000   293.93292     -7756.7221      569          
    879000   327.16335     -7746.9651      569          
    880000   352.34169     -7737.2732      569          
    881000   337.57242     -7746.0785      569          
    882000   283.60712     -7758.5128      569          
    883000   316.28946     -7748.7682      569          
    884000   298.25279     -7752.1061      569          
    885000   277.88158     -7761.3337      569          
    886000   279.86478     -7755.4607      569          
    887000   322.85071     -7743.354       569          
    888000   287.16291     -7754.9228      569          
    889000   301.4889      -7757.3612      569          
    890000   311.41268     -7750.7298      569          
    891000   291.45347     -7761.7069      570          
    892000   315.8531      -7758.8108      570          
    893000   297.51035     -7763.8745      570          
    894000   307.35132     -7759.1212      570          
    895000   271.78737     -7772.2485      570          
    896000   309.12234     -7759.8146      570          
    897000   313.61199     -7763.5476      570          
    898000   308.70358     -7760.9794      570          
    899000   291.54517     -7766.7132      570          
    900000   301.34207     -7756.925       570          
    901000   333.94236     -7749.3737      570          
    902000   296.7222      -7767.4221      570          
    903000   315.71102     -7759.0908      570          
    904000   312.83351     -7760.8725      570          
    905000   298.84768     -7765.1292      570          
    906000   319.41324     -7760.7238      570          
    907000   330.93721     -7755.3354      570          
    908000   316.41288     -7761.2118      570          
    909000   327.91229     -7757.6003      570          
    910000   309.56557     -7761.4094      570          
    911000   293.85412     -7762.2098      570          
    912000   320.93235     -7758.5949      570          
    913000   276.10466     -7768.8382      570          
    914000   282.26302     -7775.4447      571          
    915000   306.92025     -7769.7317      571          
    916000   285.95837     -7780.8144      571          
    917000   322.89464     -7769.458       571          
    918000   270.5908      -7781.4614      571          
    919000   333.65114     -7763.2392      571          
    920000   270.07693     -7784.5239      571          
    921000   339.88838     -7761.8313      571          
    922000   255.17725     -7788.6296      571          
    923000   330.85143     -7764.3283      571          
    924000   257.49308     -7785.3061      571          
    925000   312.69487     -7773.0072      571          
    926000   290.55281     -7774.3068      571          
    927000   295.17504     -7778.6668      571          
    928000   290.30746     -7775.7944      571          
    929000   335.29392     -7762.2586      571          
    930000   308.42241     -7768.6583      571          
    931000   314.12103     -7773.7246      571          
    932000   274.49931     -7776.9699      571          
    933000   240.85665     -7787.9427      571          
    934000   291.64886     -7778.6666      571          
    935000   315.73936     -7773.8089      571          
    936000   308.33953     -7769.8884      571          
    937000   284.4917      -7776.4411      571          
    938000   312.7908      -7772.0126      571          
    939000   314.29208     -7768.7343      571          
    940000   266.90978     -7782.322       571          
    941000   334.71943     -7765.1573      571          
    942000   313.49252     -7772.3694      571          
    943000   306.231       -7768.369       571          
    944000   288.98938     -7777.2478      571          
    945000   325.64551     -7772.639       571          
    946000   315.44524     -7768.7463      571          
    947000   321.34741     -7771.6961      571          
    948000   281.73221     -7775.9886      571          
    949000   310.87894     -7769.0842      571          
    950000   282.06819     -7781.271       571          
    951000   329.63469     -7763.1068      571          
    952000   309.6212      -7774.4853      571          
    953000   313.22491     -7769.8661      571          
    954000   313.88233     -7770.6613      571          
    955000   325.3511      -7774.7769      572          
    956000   269.56365     -7795.2826      572          
    957000   334.6475      -7780.9886      572          
    958000   300.89147     -7790.3567      572          
    959000   287.75922     -7796.7702      572          
    960000   318.05567     -7784.4222      572          
    961000   323.25879     -7781.0138      572          
    962000   349.32271     -7774.5263      572          
    963000   273.96639     -7799.1122      572          
    964000   317.73428     -7789.4381      572          
    965000   319.44675     -7784.5707      572          
    966000   317.09549     -7782.5655      572          
    967000   304.10204     -7787.3423      572          
    968000   287.75808     -7794.8968      572          
    969000   296.2113      -7791.829       572          
    970000   288.05123     -7795.0827      572          
    971000   326.37712     -7778.2425      572          
    972000   289.12644     -7791.9883      572          
    973000   303.7265      -7791.6534      572          
    974000   276.33976     -7795.6184      572          
    975000   287.80611     -7793.5346      572          
    976000   316.00166     -7782.2781      572          
    977000   264.84578     -7797.8987      572          
    978000   339.50051     -7774.7608      572          
    979000   290.81053     -7795.9351      572          
    980000   328.45641     -7781.809       572          
    981000   301.15865     -7789.6303      572          
    982000   321.80577     -7783.3565      572          
    983000   273.88137     -7802.0412      572          
    984000   342.42039     -7785.7453      572          
    985000   300.21778     -7789.9626      572          
    986000   314.9819      -7787.3773      572          
    987000   293.56611     -7796.7314      572          
    988000   289.54678     -7791.4301      572          
    989000   285.44375     -7795.6411      572          
    990000   284.23302     -7794.1482      572          
    991000   327.71344     -7785.9662      572          
    992000   303.96047     -7794.5655      572          
    993000   278.41175     -7793.4494      572          
    994000   320.48395     -7783.8901      572          
    995000   282.1126      -7798.0287      572          
    996000   311.07243     -7791.5076      572          
    997000   331.16635     -7787.2795      572          
    998000   271.55321     -7798.3019      572          
    999000   281.73157     -7797.2035      572          
   1000000   232.09548     -7813.0971      572          
   1001000   279.35399     -7800.3409      572          
   1002000   305.89876     -7790.9949      572          
   1003000   317.9567      -7788.7904      572          
   1004000   307.93472     -7792.0886      572          
   1005000   295.73287     -7795.1683      572          
   1006000   294.21408     -7792.9605      572          
   1007000   262.61816     -7799.1653      572          
   1008000   289.79066     -7794.9833      572          
   1009000   326.27191     -7785.0845      572          
   1010000   279.24794     -7808.092       573          
   1011000   339.2566      -7786.8822      573          
   1012000   282.4099      -7806.3348      573          
   1013000   305.07385     -7802.3833      573          
   1014000   300.2194      -7796.379       573          
   1015000   327.54436     -7792.8917      573          
   1016000   286.80789     -7811.6358      573          
   1017000   324.12077     -7796.5155      573          
   1018000   303.68409     -7800.057       573          
   1019000   312.30456     -7796.4276      573          
   1020000   299.15633     -7806.9697      573          
   1021000   267.30241     -7813.0652      573          
   1022000   317.29673     -7793.4237      573          
   1023000   326.41936     -7791.5594      573          
   1024000   266.50023     -7812.6259      573          
   1025000   322.20976     -7795.8321      573          
   1026000   294.58426     -7802.0221      573          
   1027000   308.6818      -7798.7009      573          
   1028000   301.77548     -7805.0463      573          
   1029000   262.44993     -7812.4407      573          
   1030000   331.01474     -7792.9044      573          
   1031000   311.98492     -7796.877       573          
   1032000   311.82691     -7797.6534      573          
   1033000   307.48845     -7801.4671      573          
   1034000   304.03416     -7801.3403      573          
   1035000   257.09409     -7815.6066      573          
   1036000   296.00444     -7804.2685      573          
   1037000   280.314       -7805.7882      573          
   1038000   285.46688     -7804.5139      573          
   1039000   349.91962     -7784.4898      573          
   1040000   263.55663     -7814.2754      573          
   1041000   284.21365     -7806.8467      573          
   1042000   320.62237     -7796.6872      573          
   1043000   280.08636     -7807.9476      573          
   1044000   311.22993     -7794.8686      573          
   1045000   268.17183     -7813.7648      573          
   1046000   295.18348     -7805.0366      573          
   1047000   263.08268     -7811.7494      573          
   1048000   302.11114     -7798.6812      573          
   1049000   277.38561     -7803.8549      573          
   1050000   287.41968     -7805.1804      573          
   1051000   299.59222     -7801.3424      573          
   1052000   313.20415     -7799.8355      573          
   1053000   263.96835     -7816.0342      573          
   1054000   307.23157     -7794.2431      573          
   1055000   320.10081     -7800.0353      573          
   1056000   312.14125     -7799.1221      573          
   1057000   288.43165     -7807.854       573          
   1058000   291.13977     -7805.6054      573          
   1059000   288.25127     -7809.6089      573          
   1060000   315.6189      -7803.333       573          
   1061000   279.26341     -7811.7908      573          
   1062000   345.46441     -7784.9911      573          
   1063000   285.46663     -7808.4263      573          
   1064000   355.24296     -7790.7673      573          
   1065000   332.17133     -7794.5073      573          
   1066000   267.18612     -7811.4998      573          
   1067000   316.40451     -7795.6015      573          
   1068000   266.86248     -7817.7348      573          
   1069000   309.40905     -7798.7711      573          
   1070000   298.01549     -7801.29        573          
   1071000   305.73546     -7805.7815      573          
   1072000   292.80097     -7807.4083      573          
   1073000   323.96994     -7797.261       573          
   1074000   291.70677     -7805.1067      573          
   1075000   309.50787     -7799.5015      573          
   1076000   312.96132     -7796.6308      573          
   1077000   275.35454     -7813.9255      573          
   1078000   295.91775     -7803.7904      573          
   1079000   262.01658     -7814.1817      573          
   1080000   335.34569     -7793.0341      573          
   1081000   272.64053     -7813.5459      573          
   1082000   330.08852     -7797.2523      573          
   1083000   261.48457     -7809.7191      573          
   1084000   330.28907     -7795.5109      573          
   1085000   297.66235     -7804.5836      573          
   1086000   277.81756     -7814.1262      573          
   1087000   296.08196     -7802.7484      573          
   1088000   279.58672     -7805.4387      573          
   1089000   307.79081     -7798.3548      573          
   1090000   278.99686     -7813.537       573          
   1091000   288.93937     -7811.258       573          
   1092000   286.28189     -7819.0268      574          
   1093000   283.39904     -7820.5872      574          
   1094000   300.55284     -7812.0698      574          
   1095000   322.14271     -7809.0473      574          
   1096000   316.20273     -7812.5906      574          
   1097000   323.37775     -7808.4307      574          
   1098000   271.37251     -7820.3376      574          
   1099000   275.3836      -7818.0084      574          
   1100000   322.0315      -7807.5572      574          
   1101000   266.08099     -7828.139       574          
   1102000   326.01437     -7810.4877      574          
   1103000   323.996       -7805.8685      574          
   1104000   290.21757     -7818.7098      574          
   1105000   297.63839     -7816.496       574          
   1106000   294.39639     -7815.0601      574          
   1107000   288.60703     -7822.9736      574          
   1108000   293.21722     -7816.9621      574          
   1109000   353.96787     -7802.7363      574          
   1110000   293.58149     -7815.056       574          
   1111000   321.14664     -7809.395       574          
   1112000   344.8134      -7804.5586      574          
   1113000   296.55809     -7817.6235      574          
   1114000   374.75125     -7793.7143      574          
   1115000   293.52462     -7815.7596      574          
   1116000   330.37837     -7805.8109      574          
   1117000   298.24586     -7819.1857      574          
   1118000   347.50913     -7806.9285      574          
   1119000   302.85964     -7812.3879      574          
   1120000   342.73207     -7803.3011      574          
   1121000   318.20029     -7808.9554      574          
   1122000   272.38693     -7820.7969      574          
   1123000   311.00436     -7812.6014      574          
   1124000   284.95997     -7819.5268      574          
   1125000   295.79216     -7814.4936      574          
   1126000   302.82812     -7814.4807      574          
   1127000   316.79881     -7813.5845      574          
   1128000   321.90895     -7812.5919      574          
   1129000   316.63876     -7813.269       574          
   1130000   338.49932     -7798.2715      574          
   1131000   300.17581     -7820.0745      574          
   1132000   292.27342     -7817.2711      574          
   1133000   307.74812     -7813.3524      574          
   1134000   346.30838     -7804.7959      574          
   1135000   305.72439     -7812.0494      574          
   1136000   293.39851     -7816.6859      574          
   1137000   291.91435     -7819.639       574          
   1138000   277.75626     -7821.7336      574          
   1139000   320.81402     -7805.856       574          
   1140000   256.99945     -7831.6736      574          
   1141000   306.34988     -7810.431       574          
   1142000   267.37758     -7823.1625      574          
   1143000   283.73548     -7818.8821      574          
   1144000   320.86967     -7809.6983      574          
   1145000   290.01225     -7822.7259      574          
   1146000   359.94538     -7801.5496      574          
   1147000   308.70143     -7813.3667      574          
   1148000   308.96791     -7812.812       574          
   1149000   337.79926     -7811.2259      574          
   1150000   271.28663     -7828.9139      574          
   1151000   309.43125     -7807.2511      574          
   1152000   311.49019     -7813.2974      574          
   1153000   295.43701     -7822.3324      574          
   1154000   289.42932     -7823.3499      574          
   1155000   306.70766     -7814.0067      574          
   1156000   315.84079     -7811.7149      574          
   1157000   283.44009     -7818.6269      574          
   1158000   283.20951     -7821.6005      574          
   1159000   300.2942      -7814.9716      574          
   1160000   301.55537     -7817.1502      574          
   1161000   298.44517     -7820.594       574          
   1162000   336.09966     -7806.8266      574          
   1163000   314.60292     -7809.0864      574          
   1164000   288.91425     -7820.5877      574          
   1165000   353.43952     -7803.7215      574          
   1166000   312.14594     -7817.3708      574          
   1167000   361.81402     -7810.7108      575          
   1168000   299.49006     -7830.868       575          
   1169000   309.86986     -7826.5783      575          
   1170000   341.96869     -7815.5924      575          
   1171000   285.44695     -7831.6217      575          
   1172000   284.45882     -7831.2505      575          
   1173000   252.74881     -7840.6371      575          
   1174000   314.19034     -7826.3843      575          
   1175000   301.24079     -7821.6475      575          
   1176000   316.22996     -7818.9646      575          
   1177000   286.47251     -7833.076       575          
   1178000   278.12003     -7834.9946      575          
   1179000   330.27725     -7822.9502      575          
   1180000   310.66812     -7822.9889      575          
   1181000   320.50741     -7821.5388      575          
   1182000   294.0636      -7827.5872      575          
   1183000   290.16608     -7831.1871      575          
   1184000   379.73544     -7807.1817      575          
   1185000   306.00966     -7829.544       575          
   1186000   357.33283     -7809.7336      575          
   1187000   289.85228     -7833.1299      575          
   1188000   271.45178     -7834.9269      575          
   1189000   306.46388     -7826.8752      575          
   1190000   273.86047     -7835.9078      575          
   1191000   312.71115     -7821.9137      575          
   1192000   283.68518     -7832.8284      575          
   1193000   310.22393     -7828.1606      575          
   1194000   269.22519     -7836.1724      575          
   1195000   345.71207     -7818.2296      575          
   1196000   276.55939     -7838.1144      575          
   1197000   293.89005     -7829.6761      575          
   1198000   282.48515     -7830.2697      575          
   1199000   331.49786     -7816.7818      575          
   1200000   300.24829     -7826.2193      575          
   1201000   290.70762     -7830.0263      575          
   1202000   279.95963     -7833.8072      575          
   1203000   293.12187     -7826.4803      575          
   1204000   306.41861     -7828.7767      575          
   1205000   305.11707     -7827.8911      575          
   1206000   351.18922     -7815.8255      575          
   1207000   324.10329     -7816.9502      575          
   1208000   324.21045     -7820.8421      575          
   1209000   291.59837     -7829.5626      575          
   1210000   320.89879     -7823.1853      575          
   1211000   285.16654     -7834.6074      575          
   1212000   303.20671     -7823.128       575          
   1213000   277.41542     -7836.2254      575          
   1214000   289.65058     -7836.5827      575          
   1215000   333.31939     -7818.9386      575          
   1216000   313.86012     -7820.5104      575          
   1217000   360.44738     -7812.9086      575          
   1218000   317.2195      -7822.6979      575          
   1219000   306.78844     -7830.1047      575          
   1220000   280.50354     -7833.3356      575          
   1221000   281.03667     -7834.1671      575          
   1222000   339.80222     -7816.4444      575          
   1223000   303.04764     -7830.0035      575          
   1224000   323.73507     -7820.6494      575          
   1225000   328.18278     -7819.6656      575          
   1226000   259.45378     -7842.88        575          
   1227000   321.16064     -7823.2141      575          
   1228000   322.49229     -7824.2414      575          
   1229000   328.35154     -7822.1331      575          
   1230000   306.42734     -7822.2524      575          
   1231000   287.83351     -7833.8149      575          
   1232000   295.608       -7842.1303      576          
   1233000   280.07818     -7845.1975      576          
   1234000   365.0869      -7822.2266      576          
   1235000   257.27787     -7852.2779      576          
   1236000   313.79839     -7838.2346      576          
   1237000   308.58724     -7841.341       576          
   1238000   270.47465     -7856.561       577          
   1239000   299.92677     -7854.1398      577          
   1240000   279.01571     -7854.1743      577          
   1241000   319.18963     -7850.5822      577          
   1242000   323.14824     -7847.6784      577          
   1243000   270.43454     -7855.9551      577          
   1244000   295.6026      -7851.9379      577          
   1245000   282.73297     -7858.0233      577          
   1246000   343.75324     -7838.688       577          
   1247000   277.06101     -7860.8755      577          
   1248000   293.55497     -7851.7588      577          
   1249000   302.39529     -7853.8911      577          
   1250000   279.68986     -7861.3162      577          
   1251000   304.99169     -7857.0668      577          
   1252000   300.0956      -7858.1363      577          
   1253000   278.91953     -7862.1738      577          
   1254000   309.56991     -7852.3376      577          
   1255000   300.5346      -7858.547       577          
   1256000   317.29151     -7853.2646      577          
   1257000   295.61141     -7860.115       577          
   1258000   299.06378     -7859.6107      577          
   1259000   307.36627     -7853.2098      577          
   1260000   260.84086     -7868.7664      577          
   1261000   283.71954     -7866.7779      577          
   1262000   334.14522     -7847.7602      577          
   1263000   295.69914     -7859.2784      577          
   1264000   342.09676     -7845.9291      577          
   1265000   303.02246     -7858.0787      577          
   1266000   306.96007     -7856.9439      577          
   1267000   332.97178     -7848.9219      577          
   1268000   280.44224     -7866.0389      577          
   1269000   264.16345     -7869.6405      577          
   1270000   302.16217     -7856.47        577          
[...]
   2175000   360.2364      -7922.1066      583          
   2176000   271.77438     -7950.3542      583          
   2177000   328.12534     -7933.0405      583          
   2178000   311.08937     -7936.0488      583          
   2179000   333.4266      -7928.8768      583          
   2180000   301.76666     -7937.3523      583          
   2181000   330.1297      -7932.0486      583          
   2182000   315.78943     -7929.7551      583          
   2183000   321.75465     -7933.9751      583          
   2184000   312.73264     -7939.4649      583          
   2185000   311.12695     -7935.4191      583          
   2186000   316.15054     -7935.2097      583          
   2187000   288.13274     -7940.8432      583          
   2188000   290.01061     -7944.418       583          
   2189000   341.19312     -7925.5418      583          
   2190000   290.28619     -7940.1943      583          
   2191000   361.13526     -7925.4129      583          
   2192000   294.12759     -7942.2436      583          
   2193000   335.449       -7929.538       583          
   2194000   331.27088     -7933.6685      583          
   2195000   306.4539      -7935.355       583          
   2196000   312.6126      -7934.084       583          
   2197000   298.92349     -7935.8401      583          
   2198000   352.85088     -7923.2267      583          
   2199000   316.75854     -7939.1144      583          
   2200000   297.94706     -7941.118       583          
   2201000   315.82289     -7933.2114      583          
   2202000   255.30814     -7953.1515      583          
   2203000   300.31282     -7940.0418      583          
   2204000   295.54788     -7944.3374      583          
   2205000   341.1854      -7926.9188      583          
   2206000   280.65029     -7947.1066      583          
   2207000   287.50549     -7944.4493      583          
   2208000   268.18945     -7949.1371      583          
   2209000   291.15143     -7940.3783      583          
   2210000   276.37525     -7947.1277      583          
   2211000   314.53241     -7935.5873      583          
   2212000   295.63592     -7936.4067      583          
   2213000   312.43579     -7937.9829      583          
   2214000   319.35941     -7937.324       583          
   2215000   320.01142     -7929.7507      583          
   2216000   337.62569     -7927.6514      583          
   2217000   299.88741     -7943.2991      583          
   2218000   303.45206     -7940.1381      583          
   2219000   307.38278     -7936.6356      583          
   2220000   293.57485     -7939.4457      583          
   2221000   305.49536     -7937.0634      583          
   2222000   268.80542     -7949.5774      583          
   2223000   310.7292      -7937.2122      583          
   2224000   311.66175     -7939.6901      583          
   2225000   333.30441     -7929.8194      583          
   2226000   303.76071     -7934.8785      583          
   2227000   279.63878     -7947.78        583          
   2228000   295.64323     -7936.3304      583          
   2229000   293.12208     -7940.372       583          
   2230000   311.90006     -7938.1669      583          
   2231000   275.40763     -7950.6057      583          
   2232000   328.22507     -7929.7154      583          
   2233000   303.85493     -7940.5779      583          
   2234000   283.56861     -7942.2246      583          
   2235000   317.73775     -7938.5296      583          
   2236000   277.44883     -7944.1071      583          
   2237000   332.27463     -7930.1682      583          
   2238000   277.41216     -7948.4261      583          
   2239000   283.27842     -7943.9869      583          
   2240000   314.361       -7940.0811      583          
   2241000   299.77843     -7933.4119      583          
   2242000   345.12824     -7928.2563      583          
   2243000   327.86334     -7934.143       583          
   2244000   315.5462      -7937.4122      583          
   2245000   325.90126     -7931.5843      583          
   2246000   307.06221     -7936.659       583          
   2247000   261.64726     -7951.1953      583          
   2248000   313.7702      -7936.7035      583          
   2249000   295.49        -7941.7421      583          
   2250000   321.59088     -7932.9001      583          
   2251000   305.16491     -7934.6441      583          
   2252000   295.79961     -7943.5796      583          
   2253000   288.65973     -7946.2722      583          
   2254000   288.61946     -7940.8105      583          
   2255000   311.91555     -7934.9122      583          
   2256000   314.92062     -7934.2537      583          
   2257000   345.43104     -7930.9819      583          
   2258000   281.1159      -7944.5061      583          
   2259000   297.08607     -7941.2924      583          
   2260000   281.56138     -7944.3852      583          
   2261000   314.91461     -7933.1221      583          
   2262000   338.41679     -7931.8787      583          
   2263000   310.99234     -7933.9244      583          
   2264000   360.5013      -7925.5329      583          
   2265000   327.55931     -7935.0537      583          
   2266000   346.57964     -7921.3345      583          
   2267000   291.35232     -7937.5627      583          
   2268000   348.38498     -7929.9039      583          
   2269000   270.408       -7952.2764      583          
   2270000   297.66122     -7941.4875      583          
   2271000   301.56173     -7941.2947      583          
   2272000   288.0603      -7941.8024      583          
   2273000   295.75752     -7936.9376      583          
   2274000   257.46966     -7953.5295      583          
   2275000   309.85819     -7935.1453      583          
   2276000   316.62074     -7930.8231      583          
   2277000   290.22322     -7943.8866      583          
   2278000   276.45962     -7944.1323      583          
   2279000   282.81804     -7940.8182      583          
   2280000   328.68128     -7930.6351      583          
   2281000   321.38715     -7938.4533      583          
   2282000   283.46671     -7942.2014      583          
   2283000   280.21265     -7944.9628      583          
   2284000   321.7823      -7928.7417      583          
   2285000   299.21139     -7940.9031      583          
   2286000   315.76667     -7935.4503      583          
   2287000   269.95985     -7950.6365      583          
   2288000   319.56632     -7932.1372      583          
   2289000   326.10333     -7938.064       583          
   2290000   341.89143     -7928.0321      583          
   2291000   314.87769     -7937.6601      583          
   2292000   308.765       -7939.9635      583          
   2293000   327.12613     -7928.7701      583          
   2294000   292.79102     -7933.9578      583          
   2295000   320.6995      -7930.9088      583          
   2296000   313.01177     -7938.8804      583          
   2297000   302.8684      -7938.5163      583          
   2298000   309.11504     -7936.2257      583          
   2299000   319.1612      -7932.1304      583          
   2300000   270.84145     -7950.449       583          
   2301000   313.09877     -7934.0612      583          
   2302000   302.47262     -7941.2037      583          
   2303000   274.87175     -7941.9091      583          
   2304000   326.87209     -7935.6471      583          
   2305000   335.71823     -7931.4819      583          
   2306000   274.41843     -7947.3372      583          
   2307000   361.16878     -7917.3262      583          
   2308000   287.35873     -7938.6801      583          
   2309000   287.02113     -7945.4724      583          
   2310000   310.29137     -7934.6577      583          
   2311000   313.07052     -7938.335       583          
   2312000   336.88345     -7930.1311      583          
   2313000   362.00533     -7923.8654      583          
   2314000   301.23881     -7941.0334      583          
   2315000   286.41627     -7943.3366      583          
   2316000   306.57458     -7940.7042      583          
   2317000   309.57176     -7937.7136      583          
   2318000   296.82702     -7942.7129      583          
   2319000   276.13398     -7946.8524      583          
   2320000   316.0309      -7933.25        583          
   2321000   278.44122     -7946.8134      583          
   2322000   282.70396     -7943.4848      583          
   2323000   342.767       -7927.4157      583          
   2324000   290.36114     -7945.3651      583          
   2325000   337.29327     -7926.7056      583          
   2326000   309.47021     -7936.3523      583          
   2327000   305.10325     -7937.6463      583          
   2328000   294.15936     -7942.1558      583          
   2329000   312.64045     -7933.3195      583          
   2330000   276.88175     -7945.6297      583          
   2331000   314.82885     -7932.1497      583          
   2332000   284.69392     -7944.9874      583          
   2333000   265.95465     -7946.5317      583          
   2334000   311.83334     -7939.2258      583          
   2335000   283.1631      -7941.1065      583          
   2336000   326.37481     -7931.6967      583          
   2337000   308.70851     -7934.2733      583          
   2338000   293.32566     -7939.5111      583          
   2339000   310.66928     -7938.3352      583          
   2340000   294.48915     -7941.74        583          
   2341000   299.64586     -7941.5575      583          
   2342000   319.32606     -7933.5038      583          
   2343000   326.51984     -7929.9303      583          
   2344000   273.52112     -7947.0104      583          
   2345000   312.57529     -7936.0161      583          
   2346000   325.77673     -7932.3045      583          
   2347000   258.615       -7954.8313      583          
   2348000   320.10481     -7930.2126      583          
   2349000   290.20552     -7940.7579      583          
   2350000   345.76875     -7925.604       583          
   2351000   271.27822     -7947.4573      583          
   2352000   328.09087     -7930.9723      583          
   2353000   320.00086     -7933.6733      583          
   2354000   305.63379     -7935.3086      583          
   2355000   288.06956     -7946.5022      583          
   2356000   286.43393     -7941.7663      583          
   2357000   312.56855     -7932.8108      583          
   2358000   300.09491     -7940.1983      583          
   2359000   307.26338     -7937.3774      583          
   2360000   272.78302     -7947.1605      583          
   2361000   297.22505     -7938.5098      583          
   2362000   293.27648     -7937.9326      583          
   2363000   278.96984     -7947.189       583          
   2364000   312.62269     -7938.1303      583          
   2365000   322.07418     -7933.2858      583          
   2366000   327.17991     -7932.3196      583          
   2367000   316.00699     -7933.6204      583          
   2368000   292.20649     -7940.5223      583          
   2369000   337.46635     -7925.5401      583          
   2370000   306.34512     -7940.1506      583          
   2371000   331.64126     -7932.9039      583          
   2372000   313.66799     -7934.5437      583          
   2373000   327.43039     -7932.1487      583          
   2374000   298.08901     -7941.5683      583          
   2375000   326.68432     -7933.0262      583          
   2376000   299.96002     -7932.9901      583          
   2377000   347.57264     -7923.0833      583          
   2378000   294.27261     -7939.1476      583          
   2379000   302.97787     -7937.6458      583          
   2380000   318.6316      -7932.0255      583          
   2381000   254.29509     -7953.0508      583          
   2382000   340.78877     -7930.3388      583          
   2383000   303.24515     -7937.855       583          
   2384000   302.7793      -7937.7311      583          
   2385000   292.69563     -7944.1148      583          
   2386000   273.04397     -7946.7034      583          
   2387000   309.21399     -7939.2854      583          
   2388000   315.48399     -7937.4339      583          
   2389000   321.5711      -7928.3597      583          
   2390000   330.12473     -7934.494       583          
   2391000   304.14031     -7939.6563      583          
   2392000   336.50154     -7923.7848      583          
   2393000   324.7889      -7929.8411      583          
   2394000   290.12562     -7943.8728      583          
   2395000   301.93602     -7941.3144      583          
   2396000   296.16101     -7941.4449      583          
   2397000   320.52394     -7931.2238      583          
   2398000   296.61239     -7938.9922      583          
   2399000   321.96755     -7933.7         583          
   2400000   278.90991     -7943.7901      583          
   2401000   252.15297     -7953.807       583          
   2402000   292.60452     -7936.5868      583          
   2403000   279.12182     -7943.6328      583          
   2404000   300.35086     -7939.956       583          
   2405000   246.02797     -7954.7841      583          
   2406000   286.53871     -7941.9136      583          
   2407000   289.19116     -7938.4115      583          
   2408000   300.15381     -7942.541       583          
   2409000   330.40928     -7925.5803      583          
   2410000   339.54419     -7929.3577      583          
   2411000   305.8761      -7941.0141      583          
   2412000   295.72098     -7936.8803      583          
   2413000   309.82288     -7937.0688      583          
   2414000   289.63331     -7939.6312      583          
   2415000   302.18172     -7940.2745      583          
   2416000   299.85072     -7936.7281      583          
   2417000   254.44537     -7952.9568      583          
   2418000   316.57371     -7932.7272      583          
   2419000   273.00787     -7949.2457      583          
   2420000   316.31145     -7935.3192      583          
   2421000   280.21085     -7945.865       583          
   2422000   337.25212     -7929.4319      583          
   2423000   238.95507     -7959.3224      583          
   2424000   339.60914     -7928.3718      583          
   2425000   274.65631     -7948.538       583          
   2426000   324.26412     -7932.1403      583          
   2427000   303.63563     -7937.414       583          
   2428000   326.10177     -7931.8313      583          
   2429000   327.30432     -7931.507       583          
   2430000   282.41329     -7944.7326      583          
   2431000   327.96558     -7931.6959      583          
   2432000   280.73322     -7946.7512      583          
   2433000   316.38174     -7931.26        583          
   2434000   323.37204     -7932.3686      583          
   2435000   291.17654     -7941.7532      583          
   2436000   298.96631     -7940.9641      583          
   2437000   353.24502     -7924.8342      583          
   2438000   272.87753     -7949.5256      583          
   2439000   301.87902     -7937.4557      583          
   2440000   290.04311     -7943.0553      583          
   2441000   318.38246     -7932.4788      583          
   2442000   309.01332     -7933.6029      583          
   2443000   302.67125     -7938.3189      583          
   2444000   284.47075     -7943.6382      583          
   2445000   316.15616     -7936.2418      583          
   2446000   311.32823     -7935.4915      583          
   2447000   309.78807     -7938.0114      583          
   2448000   333.55325     -7931.5304      583          
   2449000   305.99507     -7932.4398      583          
   2450000   298.84879     -7943.3795      583          
   2451000   364.66113     -7924.2046      583          
   2452000   293.49766     -7943.5424      583          
   2453000   318.75648     -7930.1396      583          
   2454000   286.80855     -7946.5144      583          
   2455000   328.54134     -7934.0414      583          
   2456000   295.64151     -7941.8148      583          
   2457000   276.46509     -7944.7549      583          
   2458000   338.81339     -7932.2954      583          
   2459000   299.05365     -7937.8129      583          
   2460000   303.25036     -7942.6055      583          
   2461000   349.50372     -7926.6536      583          
   2462000   290.3878      -7943.7887      583          
   2463000   313.19048     -7931.5715      583          
   2464000   269.6137      -7949.7711      583          
   2465000   315.36211     -7935.7289      583          
   2466000   319.70563     -7932.4178      583          
   2467000   336.24961     -7927.6197      583          
   2468000   289.67231     -7943.5616      583          
   2469000   299.14478     -7945.5905      583          
   2470000   307.06333     -7937.856       583          
   2471000   265.4023      -7949.6039      583          
   2472000   314.50472     -7929.9324      583          
   2473000   369.45872     -7916.9166      583          
   2474000   272.01187     -7948.2672      583          
   2475000   266.54707     -7949.8063      583          
   2476000   307.10925     -7938.7398      583          
   2477000   319.17628     -7931.8407      583          
   2478000   297.51889     -7936.3076      583          
   2479000   267.28672     -7949.4943      583          
   2480000   291.79186     -7942.1166      583          
   2481000   274.53553     -7949.4805      583          
   2482000   290.94598     -7940.7641      583          
   2483000   308.63035     -7938.6466      583          
   2484000   310.11209     -7935.2138      583          
   2485000   282.66885     -7945.8928      583          
   2486000   310.81567     -7933.321       583          
   2487000   333.22946     -7933.8948      583          
   2488000   340.48871     -7930.0264      583          
   2489000   359.16404     -7922.1666      583          
   2490000   313.01806     -7934.6701      583          
   2491000   305.17432     -7938.5891      583          
   2492000   296.27457     -7940.8922      583          
   2493000   326.19274     -7931.8876      583          
   2494000   297.3859      -7940.7335      583          
   2495000   250.82532     -7955.6425      583          
   2496000   298.30214     -7942.6529      583          
   2497000   296.05413     -7941.9235      583          
   2498000   334.17166     -7930.7238      583          
   2499000   302.34066     -7939.6919      583          
   2500000   330.35289     -7934.5746      583          
   2501000   297.73937     -7941.3898      583          
   2502000   287.23751     -7938.8003      583          
Loop time of 42315.2 on 8 procs for 2500000 steps with 1749 atoms

Performance: 5.105 ns/day, 4.702 hours/ns, 59.080 timesteps/s, 103.332 katom-step/s
799.8% CPU use with 1 MPI tasks x 8 OpenMP threads

MPI task timing breakdown:
Section |  min time  |  avg time  |  max time  |%varavg| %total
---------------------------------------------------------------
Pair    | 4441.1     | 4441.1     | 4441.1     |   0.0 | 10.50
Bond    | 27.289     | 27.289     | 27.289     |   0.0 |  0.06
Kspace  | 1165.5     | 1165.5     | 1165.5     |   0.0 |  2.75
Neigh   | 222.37     | 222.37     | 222.37     |   0.0 |  0.53
Comm    | 173.89     | 173.89     | 173.89     |   0.0 |  0.41
Output  | 2.5158     | 2.5158     | 2.5158     |   0.0 |  0.01
Modify  | 36269      | 36269      | 36269      |   0.0 | 85.71
Other   |            | 13.26      |            |       |  0.03

Nlocal:           1749 ave        1749 max        1749 min
Histogram: 1 0 0 0 0 0 0 0 0 0
Nghost:          14904 ave       14904 max       14904 min
Histogram: 1 0 0 0 0 0 0 0 0 0
Neighs:    1.12412e+06 ave 1.12412e+06 max 1.12412e+06 min
Histogram: 1 0 0 0 0 0 0 0 0 0

Total # of neighbors = 1124122
Ave neighs/atom = 642.7227
Ave special neighs/atom = 2
Neighbor list builds = 2550586
Dangerous builds = 0
Total wall time: 11:45:15
