LAMMPS (27 Jun 2024)
  using 8 OpenMP thread(s) per MPI task
package omp 0
using multi-threaded neighbor list subroutines
# LAMMPS input script by Simon Gravelle
# For LAMMPS tutorials, see https://lammpstutorials.github.io
# Last tested using the 27Jun2024 LAMMPS version

variable Nstep equal 2500000
variable mu_K equal -2800
variable mu_kcal_mol equal ${mu_K}*0.0019872041
variable mu_kcal_mol equal -2800*0.0019872041
print "mu equal ${mu_kcal_mol}"
mu equal -5.56417148
variable tfac equal 5.0/3.0
variable Nattempt equal 100

units real
boundary p p p
atom_style full
pair_style lj/cut/coul/long 12
kspace_style ewald 1.0e-5
bond_style harmonic
angle_style harmonic
pair_modify mix geometric
special_bonds lj 0.0 0.0 0.0 coul 0.0 0.0 0.0 angle yes

read_data box.data
Reading data file ...
  orthogonal box = (-12.5 -12.5 -12.5) to (12.5 12.5 12.5)
  1 by 1 by 1 MPI processor grid
  reading atom labelmap ...
  reading bond labelmap ...
  reading angle labelmap ...
  reading atoms ...
  150 atoms
  reading velocities ...
  150 velocities
  scanning bonds ...
  1 = max bonds/atom
  scanning angles ...
  1 = max angles/atom
  orthogonal box = (-12.5 -12.5 -12.5) to (12.5 12.5 12.5)
  1 by 1 by 1 MPI processor grid
  reading bonds ...
  100 bonds
  reading angles ...
  50 angles
Finding 1-2 1-3 1-4 neighbors ...
  special bond factors lj:    0        0        0       
  special bond factors coul:  0        0        0       
     2 = max # of 1-2 neighbors
     1 = max # of 1-3 neighbors
     1 = max # of 1-4 neighbors
  100 = # of 1-3 neighbors before angle trim
  100 = # of 1-3 neighbors after angle trim
     2 = max # of special neighbors
  special bonds CPU = 0.000 seconds
  read_data CPU = 0.006 seconds
labelmap atom 1 O 2 C
labelmap bond 1 C-O
labelmap angle 1 O-C-O

group CO2 type C O
150 atoms in group CO2
include parm.lmp
# LAMMPS parameter file for H2O SPCE water model
# For conversion from K to kcal / mol, multiply
# by Boltzmann = 0.0019872041 kcal / (mol * K)

mass O 15.9994
mass C 12.0110

pair_coeff O O 0.164858 3.011
pair_coeff C C 0.05894 2.789

bond_coeff C-O 0.0 1.18 # rigid

angle_coeff O-C-O 0.0 180.0 # rigid

molecule CO2mol CO2.mol
Read molecule template CO2mol:
# LAMMPS molecule file for carbondioxide
  1 molecules
  0 fragments
  3 atoms with max type 2
  2 bonds with max type 1
  1 angles with max type 1
  0 dihedrals with max type 0
  0 impropers with max type 0

fix mynvt CO2 rigid/nvt/small molecule temp 300 300 100 mol CO2mol
  create bodies CPU = 0.000 seconds
  50 rigid bodies with 150 atoms
  1.18 = max distance from body owner to body atom
thermo 1000

run 2000

CITE-CITE-CITE-CITE-CITE-CITE-CITE-CITE-CITE-CITE-CITE-CITE-CITE

Your simulation uses code contributions which should be cited:

- Type Label Framework: https://doi.org/10.1021/acs.jpcb.3c08419

@Article{Gissinger24,
 author = {Jacob R. Gissinger, Ilia Nikiforov, Yaser Afshar, Brendon Waters, Moon-ki Choi, Daniel S. Karls, Alexander Stukowski, Wonpil Im, Hendrik Heinz, Axel Kohlmeyer, and Ellad B. Tadmor},
 title = {Type Label Framework for Bonded Force Fields in LAMMPS},
 journal = {J. Phys. Chem. B},
 year =    2024,
 volume =  128,
 number =  13,
 pages =   {3282–-3297}
}

CITE-CITE-CITE-CITE-CITE-CITE-CITE-CITE-CITE-CITE-CITE-CITE-CITE

Ewald initialization ...
  using 12-bit tables for long-range coulomb (src/kspace.cpp:342)
  G vector (1/distance) = 0.21801154
  estimated absolute RMS force accuracy = 0.0034006373
  estimated relative force accuracy = 1.0240918e-05
  KSpace vectors: actual max1d max3d = 257 5 665
                  kxmax kymax kzmax  = 5 5 5
Generated 1 of 1 mixed pair_coeff terms from geometric mixing rule
Last active /omp style is kspace_style ewald/omp
Neighbor list info ...
  update: every = 1 steps, delay = 0 steps, check = yes
  max neighbors/atom: 2000, page size: 100000
  master list distance cutoff = 14
  ghost atom cutoff = 14
  binsize = 7, bins = 4 4 4
  1 neighbor lists, perpetual/occasional/extra = 1 0 0
  (1) pair lj/cut/coul/long/omp, perpetual
      attributes: half, newton on, omp
      pair build: half/bin/newton/omp
      stencil: half/bin/3d
      bin: standard
Per MPI rank memory allocation (min/avg/max) = 26.82 | 26.82 | 26.82 Mbytes
   Step          Temp          E_pair         E_mol          TotEng         Press     
         0   0             -24.115729      0             -24.115729     -139.61173    
      1000   270.80748     -28.024535      0              38.437043      69.359993    
      2000   302.41636     -29.459348      0              44.759684      89.86941     
Loop time of 0.624105 on 8 procs for 2000 steps with 150 atoms

Performance: 276.877 ns/day, 0.087 hours/ns, 3204.590 timesteps/s, 480.688 katom-step/s
797.7% CPU use with 1 MPI tasks x 8 OpenMP threads

MPI task timing breakdown:
Section |  min time  |  avg time  |  max time  |%varavg| %total
---------------------------------------------------------------
Pair    | 0.046989   | 0.046989   | 0.046989   |   0.0 |  7.53
Bond    | 0.020986   | 0.020986   | 0.020986   |   0.0 |  3.36
Kspace  | 0.40183    | 0.40183    | 0.40183    |   0.0 | 64.39
Neigh   | 0.0022991  | 0.0022991  | 0.0022991  |   0.0 |  0.37
Comm    | 0.017844   | 0.017844   | 0.017844   |   0.0 |  2.86
Output  | 4.1455e-05 | 4.1455e-05 | 4.1455e-05 |   0.0 |  0.01
Modify  | 0.13286    | 0.13286    | 0.13286    |   0.0 | 21.29
Other   |            | 0.001257   |            |       |  0.20

Nlocal:            150 ave         150 max         150 min
Histogram: 1 0 0 0 0 0 0 0 0 0
Nghost:           1372 ave        1372 max        1372 min
Histogram: 1 0 0 0 0 0 0 0 0 0
Neighs:           8049 ave        8049 max        8049 min
Histogram: 1 0 0 0 0 0 0 0 0 0

Total # of neighbors = 8049
Ave neighs/atom = 53.66
Ave special neighs/atom = 2
Neighbor list builds = 20
Dangerous builds = 0

fix fgcmc CO2 gcmc 100 ${Nattempt} 0 0 25899 300 ${mu_kcal_mol} 0.1     mol CO2mol tfac_insert ${tfac} full_energy rigid mynvt
fix fgcmc CO2 gcmc 100 100 0 0 25899 300 ${mu_kcal_mol} 0.1     mol CO2mol tfac_insert ${tfac} full_energy rigid mynvt
fix fgcmc CO2 gcmc 100 100 0 0 25899 300 -5.56417148 0.1     mol CO2mol tfac_insert ${tfac} full_energy rigid mynvt
fix fgcmc CO2 gcmc 100 100 0 0 25899 300 -5.56417148 0.1     mol CO2mol tfac_insert 1.66666666666667 full_energy rigid mynvt

variable carbon atom "type==2"
group carbon dynamic all var carbon
dynamic group carbon defined
variable nC equal count(carbon)
fix myat1 all ave/time 10 10 1000 v_nC file number_CO2.dat
variable density equal v_nC*(2*15.9994+12.011)/vol/6.022e23*(1e8)^3
fix myat2 all ave/time 10 10 1000 v_density file density_CO2.dat
compute press all pressure thermo_temp
fix myat3 all ave/time 10 100 1000 c_press file pressure_CO2.dat
thermo_style custom step temp etotal v_nC

run ${Nstep}
run 2500000
Ewald initialization ...
  using 12-bit tables for long-range coulomb (src/kspace.cpp:342)
  G vector (1/distance) = 0.21801154
  estimated absolute RMS force accuracy = 0.0034006373
  estimated relative force accuracy = 1.0240918e-05
  KSpace vectors: actual max1d max3d = 257 5 665
                  kxmax kymax kzmax  = 5 5 5
Generated 1 of 1 mixed pair_coeff terms from geometric mixing rule
Last active /omp style is kspace_style ewald/omp
0 atoms in group FixGCMC:gcmc_exclusion_group:fgcmc
0 atoms in group FixGCMC:rotation_gas_atoms:fgcmc
WARNING: Neighbor exclusions used with KSpace solver may give inconsistent Coulombic energies (src/neighbor.cpp:658)
Per MPI rank memory allocation (min/avg/max) = 26.82 | 26.82 | 26.82 Mbytes
   Step          Temp          TotEng          v_nC     
      2000   302.41636      44.759684      50           
      3000   331.12645     -160.23462      138          
      4000   312.47437     -333.77977      168          
      5000   301.18799     -469.40863      186          
      6000   279.42148     -581.23785      205          
      7000   304.25195     -667.15427      217          
      8000   328.06426     -770.84953      232          
      9000   311.2868      -846.05084      240          
     10000   310.33679     -937.0796       253          
     11000   293.18648     -975.11625      256          
     12000   311.24535     -999.99825      259          
     13000   288.21356     -1047.0351      263          
     14000   283.01044     -1089.1225      270          
     15000   301.29912     -1099.524       272          
     16000   293.97099     -1133.4698      275          
     17000   298.38684     -1156.3101      279          
     18000   328.12335     -1182.4153      283          
     19000   300.77288     -1199.9083      284          
     20000   331.06192     -1214.3971      287          
     21000   306.46062     -1228.1511      287          
     22000   274.44597     -1237.0145      287          
     23000   320.93604     -1205.9135      287          
     24000   328.00707     -1211.3786      287          
     25000   333.47569     -1214.3631      288          
     26000   324.44187     -1228.8029      288          
     27000   278.2666      -1247.337       288          
     28000   314.19143     -1230.5123      288          
     29000   294.31273     -1248.0301      288          
     30000   299.08868     -1241.7567      288          
     31000   288.88303     -1256.1713      288          
     32000   322.84516     -1231.0742      289          
     33000   303.60324     -1241.8152      289          
     34000   294.59321     -1258.7994      289          
     35000   290.46665     -1270.8813      290          
     36000   281.32783     -1270.6928      290          
     37000   332.75453     -1249.6966      290          
     38000   292.65142     -1271.1097      290          
     39000   295.01563     -1266.6214      290          
     40000   274.48701     -1274.4668      290          
     41000   286.21388     -1272.4017      290          
     42000   292.15656     -1284.8068      292          
     43000   339.11986     -1270.7729      292          
     44000   276.11689     -1302.4392      292          
     45000   328.84474     -1271.6303      292          
     46000   294.75914     -1300.0645      292          
     47000   308.52693     -1278.033       292          
     48000   287.70973     -1294.5673      292          
     49000   348.46036     -1273.559       292          
     50000   258.85052     -1302.28        292          
     51000   294.63531     -1292.8059      292          
     52000   309.76501     -1285.0098      293          
     53000   301.58294     -1301.6816      294          
     54000   262.70632     -1321.9902      294          
     55000   346.86912     -1286.6937      294          
     56000   308.75381     -1305.2624      294          
     57000   335.35038     -1297.2773      294          
     58000   329.29811     -1292.1995      294          
     59000   297.00732     -1312.7696      294          
     60000   287.97813     -1316.5959      294          
     61000   271.00002     -1322.2445      294          
     62000   284.16675     -1305.3411      294          
     63000   353.49833     -1292.45        294          
     64000   296.77651     -1310.5973      294          
     65000   312.03117     -1298.6094      294          
     66000   325.9372      -1309.371       294          
     67000   299.89298     -1303.4539      294          
     68000   332.14612     -1292.4576      294          
     69000   265.38437     -1317.3151      294          
     70000   274.27173     -1323.0834      295          
     71000   303.87992     -1304.6485      295          
     72000   339.34371     -1298.9825      295          
     73000   268.77398     -1326.5589      295          
     74000   340.55122     -1302.1817      295          
     75000   280.75179     -1320.4894      295          
     76000   346.10897     -1306.7272      295          
     77000   303.66202     -1314.9757      295          
     78000   280.17699     -1324.2561      295          
     79000   327.55288     -1300.046       295          
     80000   283.40956     -1330.1792      295          
     81000   311.90613     -1312.8833      295          
     82000   256.51779     -1346.211       296          
     83000   291.73403     -1322.2703      296          
     84000   307.68969     -1322.557       296          
     85000   293.935       -1327.9715      296          
     86000   293.283       -1331.1798      296          
     87000   306.19281     -1322.9625      296          
     88000   333.85784     -1326.7476      297          
     89000   253.80919     -1350.9426      297          
     90000   297.40406     -1343.0559      298          
     91000   298.44989     -1339.6136      298          
     92000   301.41864     -1349.8717      298          
     93000   275.43934     -1354.6832      298          
     94000   316.03639     -1334.6525      298          
     95000   309.87528     -1345.2049      298          
     96000   308.10379     -1334.6026      298          
     97000   296.96925     -1346.5051      298          
     98000   308.37949     -1338.7881      298          
     99000   273.36336     -1363.4714      298          
    100000   315.74988     -1338.8163      298          
    101000   298.6622      -1349.0588      298          
    102000   307.32082     -1338.7052      298          
    103000   304.01731     -1344.9785      298          
    104000   295.7838      -1355.9103      298          
    105000   314.72605     -1337.8889      298          
    106000   277.87569     -1353.8497      298          
    107000   293.07031     -1335.1443      298          
    108000   341.70441     -1329.2081      298          
    109000   337.55148     -1337.4116      298          
    110000   308.73063     -1337.956       298          
    111000   302.60362     -1350.7372      298          
    112000   277.05531     -1351.9886      298          
    113000   315.11746     -1335.5138      298          
    114000   323.65954     -1340.5251      298          
    115000   280.75405     -1354.7831      298          
    116000   308.89673     -1329.4699      298          
    117000   286.46457     -1359.1379      298          
    118000   320.93983     -1330.4341      298          
    119000   299.48498     -1354.3114      298          
    120000   363.31011     -1325.2468      298          
    121000   310.26244     -1343.1725      298          
    122000   297.09799     -1349.2502      298          
    123000   281.34724     -1360.756       298          
    124000   300.2199      -1342.208       298          
    125000   319.26909     -1339.8076      298          
    126000   318.09822     -1347.9364      298          
    127000   317.01836     -1343.4125      298          
    128000   333.06007     -1333.7099      298          
    129000   285.03117     -1348.315       298          
    130000   306.05791     -1333.61        298          
    131000   315.40123     -1346.0512      298          
    132000   271.54893     -1358.415       298          
    133000   307.16127     -1345.5081      298          
    134000   336.47993     -1331.7542      298          
    135000   273.09425     -1359.7054      298          
    136000   305.1572      -1344.6497      298          
    137000   288.19116     -1351.0509      298          
    138000   331.42586     -1334.7926      298          
    139000   265.30464     -1365.5486      298          
    140000   296.75177     -1337.4663      298          
    141000   274.08574     -1354.374       298          
    142000   340.85336     -1334.3169      298          
    143000   301.92557     -1337.3198      298          
    144000   312.26301     -1342.9043      298          
    145000   264.59178     -1360.8355      298          
    146000   316.34789     -1332.7505      298          
    147000   304.79838     -1351.1023      298          
    148000   320.81609     -1345.8935      298          
    149000   296.98889     -1348.7888      298          
    150000   293.91474     -1342.0373      298          
    151000   317.88679     -1332.6925      298          
    152000   269.27269     -1358.7594      298          
    153000   314.47567     -1338.087       298          
    154000   313.23427     -1345.9015      298          
    155000   330.93664     -1329.1865      298          
    156000   314.20919     -1334.8796      298          
    157000   321.63557     -1327.089       298          
    158000   297.47456     -1348.029       298          
    159000   293.91356     -1333.8742      298          
    160000   260.6758      -1354.7759      298          
    161000   336.11667     -1331.0686      298          
    162000   295.23055     -1352.1757      298          
    163000   289.80623     -1346.7514      298          
    164000   322.42335     -1344.6617      298          
    165000   285.61171     -1354.246       298          
    166000   329.31271     -1334.0932      298          
    167000   338.57133     -1333.2293      298          
    168000   273.3646      -1359.1517      298          
    169000   305.84855     -1354.1829      298          
    170000   305.05335     -1339.028       298          
    171000   333.52119     -1336.3627      298          
    172000   343.00066     -1330.9697      298          
    173000   289.72199     -1353.7536      298          
    174000   329.55336     -1328.0321      298          
    175000   275.42731     -1357.2929      298          
    176000   288.11138     -1347.7094      298          
    177000   307.17297     -1341.2326      298          
    178000   281.84483     -1352.0345      298          
    179000   340.70572     -1326.4569      298          
    180000   272.04062     -1357.4382      298          
    181000   322.80793     -1336.0194      298          
    182000   300.62046     -1349.3361      298          
    183000   310.53645     -1342.1359      298          
    184000   308.30774     -1345.578       298          
    185000   295.80105     -1340.0055      298          
    186000   348.83454     -1323.408       298          
    187000   306.28267     -1345.9403      298          
    188000   279.51322     -1348.0634      298          
    189000   308.57046     -1335.5832      298          
    190000   289.38283     -1351.8633      298          
    191000   270.05211     -1354.9939      298          
    192000   324.4187      -1341.9862      298          
    193000   290.06478     -1357.7193      298          
    194000   306.82177     -1355.7878      298          
    195000   317.48176     -1341.5487      298          
    196000   326.52515     -1340.6182      298          
    197000   289.21902     -1353.7881      298          
    198000   351.6342      -1324.9895      298          
    199000   327.32473     -1341.5294      298          
    200000   301.00898     -1349.0599      298          
    201000   331.94545     -1333.4701      298          
    202000   289.99278     -1355.9205      298          
    203000   306.51643     -1342.8696      298          
    204000   326.12563     -1343.2582      298          
    205000   293.09802     -1356.6534      298          
    206000   295.34606     -1343.2534      298          
    207000   282.40684     -1358.047       298          
    208000   332.86152     -1330.2201      298          
    209000   338.03448     -1338.6759      298          
    210000   306.78246     -1352.1647      298          
    211000   296.51337     -1352.9595      298          
    212000   319.79165     -1339.9821      298          
    213000   258.74729     -1356.9442      298          
    214000   332.46462     -1330.1278      298          
    215000   303.86791     -1345.7165      298          
    216000   277.86148     -1359.8668      298          
    217000   308.9356      -1338.1532      298          
    218000   282.16067     -1354.3103      298          
    219000   313.56383     -1345.8038      298          
    220000   336.62748     -1333.3644      298          
    221000   293.42154     -1347.5305      298          
    222000   268.36668     -1359.0644      298          
    223000   322.3348      -1340.5818      298          
    224000   278.91536     -1344.1299      298          
    225000   323.81743     -1338.5757      298          
    226000   265.65712     -1355.1351      298          
    227000   336.1115      -1334.3888      298          
    228000   280.2284      -1350.5969      298          
    229000   308.02661     -1336.7852      298          
    230000   273.16752     -1361.116       298          
    231000   350.90618     -1331.1289      298          
    232000   297.1618      -1353.634       298          
    233000   353.5684      -1329.0366      298          
    234000   282.46591     -1350.1816      298          
    235000   347.79201     -1328.6006      298          
    236000   278.95436     -1353.6547      298          
    237000   310.2815      -1334.0551      298          
    238000   293.44204     -1343.2656      298          
    239000   259.04001     -1362.9262      298          
    240000   302.66426     -1349.3487      298          
    241000   315.10748     -1340.1927      298          
    242000   291.05675     -1352.0539      298          
    243000   304.83896     -1344.9047      298          
    244000   329.0129      -1325.5346      298          
    245000   303.08227     -1352.4146      298          
    246000   339.33418     -1332.875       298          
    247000   290.46577     -1354.1656      298          
    248000   266.90516     -1353.6346      298          
    249000   285.82256     -1351.9811      298          
    250000   324.08213     -1329.3991      298          
    251000   278.16597     -1359.7512      298          
    252000   270.82899     -1350.8469      298          
    253000   297.89679     -1338.7773      298          
    254000   343.85242     -1335.8135      298          
    255000   284.10548     -1353.4033      298          
    256000   292.62765     -1337.9919      298          
    257000   343.51521     -1322.7331      298          
    258000   303.83413     -1345.6984      298          
    259000   319.02023     -1338.6062      298          
    260000   296.26874     -1354.217       298          
    261000   294.458       -1340.6284      298          
    262000   299.32326     -1351.4179      298          
    263000   305.63681     -1337.0644      298          
    264000   335.23227     -1337.5684      298          
    265000   298.0711      -1347.6179      298          
    266000   308.63065     -1345.7211      298          
    267000   333.44573     -1338.3937      298          
    268000   278.89741     -1353.4928      298          
    269000   308.28171     -1343.7786      298          
    270000   285.39911     -1348.721       298          
    271000   340.14948     -1328.6193      298          
    272000   253.90588     -1367.4095      298          
    273000   303.11485     -1336.5561      298          
    274000   305.66949     -1346.4213      298          
    275000   361.16272     -1334.3883      298          
    276000   292.08135     -1344.0983      298          
    277000   297.73343     -1338.1341      298          
    278000   236.27363     -1370.9551      298          
    279000   267.972       -1352.0962      298          
    280000   326.23198     -1327.5364      298          
    281000   327.61518     -1352.5212      298          
    282000   299.87793     -1344.1341      298          
    283000   292.49373     -1355.7634      298          
    284000   325.15983     -1335.4016      298          
    285000   278.9171      -1358.1648      298          
    286000   302.29871     -1347.776       298          
    287000   303.09016     -1349.3587      298          
    288000   326.02088     -1330.9515      298          
    289000   332.24366     -1346.3224      298          
    290000   297.07296     -1354.2911      298          
    291000   286.35864     -1350.7689      298          
    292000   310.72177     -1348.2633      298          
    293000   272.13011     -1358.7155      298          
    294000   289.67846     -1349.6036      298          
    295000   335.08872     -1327.5932      298          
    296000   317.26967     -1346.5523      298          
    297000   312.06328     -1357.1931      298          
    298000   299.61495     -1339.5906      298          
    299000   294.54674     -1353.2374      298          
    300000   314.99753     -1338.6584      298          
    301000   278.55676     -1353.9754      298          
    302000   331.98319     -1335.6656      298          
    303000   288.20673     -1358.0217      298          
    304000   276.16284     -1355.0153      298          
    305000   302.63233     -1342.7542      298          
    306000   302.98572     -1351.2153      298          
    307000   299.13493     -1352.972       298          
    308000   320.68224     -1336.6341      298          
    309000   278.72023     -1354.0931      298          
    310000   362.46101     -1328.7776      298          
    311000   297.41058     -1343.7402      298          
    312000   348.20094     -1333.1649      298          
    313000   309.55382     -1352.3983      298          
    314000   284.23597     -1353.3225      298          
    315000   347.94779     -1326.453       298          
    316000   301.46334     -1354.3106      298          
    317000   295.50299     -1353.2116      298          
    318000   315.16893     -1350.967       298          
    319000   295.60435     -1353.3286      298          
    320000   280.94849     -1358.2133      298          
    321000   305.42773     -1347.7169      298          
    322000   287.52994     -1357.8459      298          
    323000   282.28717     -1348.379       298          
    324000   297.2916      -1355.3051      298          
    325000   284.24813     -1354.4803      298          
    326000   338.95835     -1329.5518      298          
    327000   303.24819     -1352.707       298          
    328000   348.90216     -1336.8891      298          
    329000   332.96385     -1335.3045      298          
    330000   318.69647     -1347.8467      298          
    331000   304.24081     -1350.3321      298          
    332000   323.06124     -1339.3291      298          
    333000   332.41946     -1342.8588      298          
    334000   286.9749      -1359.8705      298          
    335000   286.91244     -1353.6542      298          
    336000   288.71265     -1345.8458      298          
    337000   317.91304     -1337.2035      298          
    338000   303.01873     -1348.7074      298          
    339000   293.68278     -1344.4918      298          
    340000   283.32935     -1358.3041      298          
    341000   313.12626     -1345.9604      298          
    342000   337.74168     -1332.8792      298          
    343000   272.80354     -1358.1429      298          
    344000   331.71797     -1339.3119      298          
    345000   284.40718     -1355.6575      298          
    346000   340.30234     -1334.4027      298          
    347000   306.38317     -1342.8438      298          
    348000   282.22602     -1356.7085      298          
    349000   355.17457     -1332.1575      298          
    350000   293.44994     -1354.3936      298          
    351000   303.04786     -1351.204       298          
    352000   313.8042      -1341.1535      298          
    353000   288.08498     -1343.0232      298          
    354000   296.5954      -1353.6657      298          
    355000   302.74107     -1349.7499      298          
    356000   344.18876     -1328.3516      298          
    357000   310.74171     -1353.3751      298          
    358000   282.503       -1352.6546      298          
    359000   329.17499     -1331.5018      298          
    360000   346.61477     -1333.6347      298          
    361000   290.50684     -1359.3488      298          
    362000   287.86124     -1359.6479      298          
    363000   268.81519     -1358.863       298          
    364000   287.35116     -1346.9555      298          
    365000   287.86336     -1356.4623      298          
    366000   323.24299     -1344.714       298          
    367000   296.17624     -1349.1248      298          
    368000   291.96854     -1361.2874      298          
    369000   340.37174     -1324.2555      298          
    370000   304.43102     -1352.5132      298          
    371000   322.59437     -1330.7371      298          
    372000   275.42322     -1358.4265      298          
    373000   305.12522     -1346.2852      298          
    374000   293.64526     -1355.0267      298          
    375000   279.1996      -1356.7796      298          
    376000   331.53433     -1342.6764      298          
    377000   259.22388     -1375.5965      298          
    378000   335.08127     -1328.1087      298          
    379000   290.89846     -1358.9543      298          
    380000   299.6611      -1351.7682      298          
    381000   348.45748     -1333.4954      298          
    382000   298.66898     -1342.8473      298          
    383000   308.08849     -1353.8818      298          
    384000   311.02966     -1335.6163      298          
    385000   252.34419     -1359.8945      298          
    386000   327.13628     -1335.5904      298          
    387000   291.13665     -1354.2901      298          
    388000   264.63982     -1353.22        298          
    389000   270.27543     -1363.3088      298          
    390000   290.6898      -1353.6428      298          
    391000   329.19693     -1339.2658      298          
    392000   293.54043     -1353.4623      298          
    393000   351.28649     -1325.5486      298          
    394000   345.16959     -1339.0673      298          
    395000   261.46724     -1363.0439      298          
    396000   281.27259     -1350.1327      298          
    397000   288.08803     -1351.0515      298          
    398000   331.08271     -1335.1914      298          
    399000   317.68629     -1345.8999      298          
    400000   339.01939     -1337.887       298          
    401000   321.22804     -1344.4557      298          
    402000   284.4436      -1359.4961      298          
    403000   300.08726     -1341.0144      298          
    404000   328.33246     -1342.9487      298          
    405000   304.99558     -1342.7836      298          
    406000   344.00856     -1335.5008      298          
    407000   273.56298     -1361.1583      298          
    408000   309.79836     -1337.4334      298          
    409000   333.93079     -1341.527       298          
    410000   260.13055     -1360.9483      298          
    411000   316.29031     -1342.51        298          
    412000   330.66258     -1340.8683      298          
    413000   303.8895      -1338.6981      298          
    414000   324.21261     -1345.9986      298          
    415000   290.05117     -1355.9355      298          
    416000   299.25941     -1345.4741      298          
    417000   291.83189     -1350.6787      298          
    418000   292.25698     -1349.2857      298          
    419000   333.63963     -1337.3569      298          
    420000   293.87986     -1349.7255      298          
    421000   330.0279      -1337.143       298          
    422000   282.80611     -1359.4392      298          
    423000   276.72343     -1362.9835      298          
    424000   351.759       -1328.627       298          
    425000   315.42308     -1342.187       298          
    426000   312.00474     -1348.0711      298          
    427000   291.22016     -1354.4423      298          
    428000   301.82874     -1342.9756      298          
    429000   354.52783     -1330.242       298          
    430000   296.4445      -1354.1968      298          
    431000   318.80318     -1335.5474      298          
    432000   317.25161     -1353.4473      298          
    433000   331.60468     -1333.2527      298          
    434000   320.89927     -1342.4846      298          
    435000   292.80061     -1350.3106      298          
    436000   325.49193     -1339.5728      298          
    437000   311.42493     -1352.1752      298          
    438000   287.57724     -1352.8788      298          
    439000   278.35232     -1351.2295      298          
    440000   329.39312     -1333.079       298          
    441000   305.0636      -1352.5568      298          
    442000   288.85477     -1354.0199      298          
    443000   271.77142     -1353.3996      298          
    444000   325.73222     -1350.1162      298          
    445000   314.81995     -1339.6087      298          
    446000   303.42031     -1352.7645      298          
    447000   322.72881     -1343.7048      298          
    448000   282.96861     -1356.5354      298          
    449000   282.56004     -1355.8712      298          
    450000   317.97092     -1339.9755      298          
    451000   283.99712     -1350.1593      298          
    452000   321.44738     -1336.8183      298          
    453000   270.56876     -1360.4877      298          
    454000   301.15598     -1347.9772      298          
    455000   328.94583     -1335.5111      298          
    456000   282.89231     -1359.7579      298          
    457000   343.75079     -1329.6053      298          
    458000   316.65615     -1347.9152      298          
    459000   274.19933     -1363.6306      298          
    460000   362.38426     -1325.3409      298          
    461000   281.63549     -1356.9431      298          
    462000   299.21534     -1347.0262      298          
    463000   301.61975     -1352.6922      298          
    464000   318.82161     -1340.7091      298          
    465000   278.9199      -1350.2394      298          
    466000   319.28302     -1335.3566      298          
    467000   329.06858     -1341.5622      298          
    468000   340.60062     -1330.4299      298          
    469000   314.01534     -1342.856       298          
    470000   289.05004     -1352.3236      298          
    471000   272.63852     -1354.755       298          
    472000   276.48656     -1361.4943      298          
    473000   327.33884     -1334.4711      298          
    474000   277.87032     -1355.5638      298          
    475000   360.14805     -1330.8216      298          
    476000   289.71933     -1358.7286      298          
    477000   319.42361     -1335.7616      298          
    478000   291.69931     -1350.9415      298          
    479000   308.31658     -1343.3616      298          
    480000   290.80913     -1350.1812      298          
    481000   291.50787     -1351.3179      298          
    482000   297.80735     -1352.8414      298          
    483000   311.18702     -1336.8106      298          
    484000   284.23049     -1359.7196      298          
    485000   331.99214     -1337.3799      298          
    486000   328.2123      -1329.2456      298          
    487000   297.98613     -1355.2009      298          
    488000   338.44889     -1335.9749      298          
    489000   295.6268      -1354.2654      298          
    490000   295.69428     -1346.8449      298          
    491000   293.97546     -1354.7908      298          
    492000   283.2309      -1348.6577      298          
    493000   292.61465     -1353.3485      298          
    494000   298.29377     -1353.3341      298          
    495000   329.28059     -1346.4886      298          
    496000   303.52937     -1353.0226      298          
    497000   328.43658     -1332.3324      298          
    498000   324.09148     -1346.1227      298          
    499000   342.9615      -1336.1832      298          
    500000   286.38949     -1354.0724      298          
    501000   277.1552      -1354.5999      298          
    502000   320.55708     -1339.4757      298          
    503000   289.04988     -1354.1112      298          
    504000   289.77901     -1359.5249      298          
    505000   301.2203      -1339.8793      298          
    506000   296.80687     -1348.921       298          
    507000   322.35311     -1338.0361      298          
    508000   348.94458     -1330.4133      298          
    509000   311.23136     -1340.0408      298          
    510000   277.2192      -1359.8236      298          
    511000   279.54619     -1355.1916      298          
    512000   325.76527     -1336.298       298          
    513000   276.32866     -1358.3342      298          
    514000   294.88417     -1345.1972      298          
    515000   312.24918     -1350.9075      298          
    516000   294.06473     -1349.5849      298          
    517000   298.65828     -1359.5683      298          
    518000   337.12993     -1337.1571      298          
    519000   320.3643      -1344.1859      298          
    520000   316.32701     -1343.2555      298          
    521000   323.00411     -1336.8921      298          
    522000   324.89816     -1343.3396      298          
    523000   281.95629     -1355.4796      298          
    524000   261.82158     -1357.6892      298          
    525000   309.22254     -1353.22        298          
    526000   276.67986     -1356.8251      298          
    527000   331.83277     -1336.9053      298          
    528000   320.23509     -1339.2972      298          
    529000   313.13873     -1342.4601      298          
    530000   313.52644     -1349.9586      298          
    531000   285.42611     -1352.1958      298          
    532000   294.63982     -1350.5896      299          
    533000   278.55012     -1369.6941      299          
    534000   272.23453     -1365.0851      299          
    535000   291.38241     -1363.773       299          
    536000   285.03099     -1365.4461      299          
    537000   317.60876     -1348.2595      299          
    538000   288.40789     -1360.6214      299          
    539000   301.20211     -1356.8543      299          
    540000   312.49988     -1358.6725      299          
    541000   291.40929     -1360.765       299          
    542000   297.63628     -1356.9353      299          
    543000   285.94674     -1367.4297      299          
    544000   288.43708     -1362.6281      299          
    545000   301.54683     -1356.925       299          
    546000   326.74347     -1347.3247      299          
    547000   300.36497     -1366.9567      299          
    548000   331.00955     -1342.7623      299          
    549000   332.12839     -1354.8253      299          
    550000   293.72836     -1363.0544      299          
    551000   342.26762     -1343.0169      299          
    552000   308.56838     -1355.0741      299          
    553000   290.36867     -1369.3898      299          
    554000   308.56455     -1349.2552      299          
    555000   297.55151     -1365.853       299          
    556000   303.86077     -1355.7541      299          
    557000   295.21927     -1364.1437      299          
    558000   320.16463     -1344.7001      299          
    559000   290.73756     -1360.891       299          
    560000   275.8277      -1364.5563      299          
    561000   313.90781     -1351.9812      299          
    562000   319.68946     -1350.6156      299          
    563000   348.5493      -1345.9161      299          
    564000   283.08487     -1370.3248      299          
    565000   304.23507     -1351.6156      299          
    566000   356.05922     -1345.3288      299          
    567000   290.90549     -1367.4162      299          
    568000   326.83629     -1346.0565      299          
    569000   320.6964      -1349.9187      299          
    570000   288.5736      -1360.5618      299          
    571000   305.21888     -1352.5798      299          
    572000   296.22106     -1364.1544      299          
    573000   322.12769     -1348.9903      299          
    574000   272.3938      -1374.3404      299          
    575000   307.09202     -1354.9187      299          
    576000   343.16085     -1345.1399      299          
    577000   263.7067      -1372.8599      299          
    578000   310.1005      -1357.5462      299          
    579000   294.38725     -1363.6427      299          
    580000   241.72062     -1387.8241      299          
    581000   339.66009     -1340.1834      299          
    582000   335.40945     -1347.8876      299          
    583000   306.99281     -1364.2007      299          
    584000   302.49773     -1355.8853      299          
    585000   301.38097     -1350.0526      299          
    586000   327.89786     -1349.8629      299          
    587000   265.19906     -1371.1829      299          
    588000   365.17335     -1336.0191      299          
    589000   291.06469     -1366.8946      299          
    590000   313.13579     -1364.224       299          
    591000   274.80434     -1370.3632      299          
    592000   295.72723     -1354.926       299          
    593000   306.96136     -1357.5477      299          
    594000   331.66016     -1350.9143      299          
    595000   295.16238     -1361.6923      299          
    596000   285.87787     -1362.2994      299          
    597000   320.04472     -1353.8793      299          
    598000   315.76983     -1353.7856      299          
    599000   317.81947     -1344.5943      299          
    600000   315.11342     -1354.5932      299          
    601000   272.5094      -1369.1915      299          
    602000   334.72952     -1341.7454      299          
    603000   309.05894     -1352.7087      299          
    604000   288.6399      -1364.5861      299          
    605000   322.66285     -1360.0902      299          
    606000   285.47671     -1363.7241      299          
    607000   290.2499      -1356.8935      299          
    608000   282.83031     -1364.3566      299          
    609000   292.32553     -1368.9917      299          
    610000   309.55628     -1352.9143      299          
    611000   297.39998     -1352.3395      299          
    612000   273.49704     -1360.6989      299          
    613000   295.10607     -1368.0817      299          
    614000   282.65179     -1365.8905      299          
    615000   295.82956     -1354.7909      299          
    616000   299.99274     -1360.6549      299          
    617000   264.2147      -1369.8727      299          
    618000   273.35002     -1361.7585      299          
    619000   276.70757     -1366.7644      299          
    620000   270.45967     -1377.3873      299          
    621000   328.31808     -1352.7942      299          
    622000   291.21469     -1353.5717      299          
    623000   329.35436     -1344.5748      299          
    624000   302.47038     -1359.0068      299          
    625000   303.16183     -1364.6161      299          
    626000   263.22242     -1366.6512      299          
    627000   362.02257     -1331.4381      299          
    628000   307.3179      -1363.0546      299          
    629000   316.99566     -1340.6554      299          
    630000   299.14992     -1362.4782      299          
    631000   283.30026     -1363.5796      299          
    632000   288.03639     -1360.3806      299          
    633000   281.3074      -1360.6308      299          
    634000   312.07207     -1343.7038      299          
    635000   325.66282     -1345.3294      299          
    636000   289.47865     -1366.722       299          
    637000   339.78745     -1345.6481      299          
    638000   317.2562      -1352.7374      299          
    639000   304.47945     -1348.7824      299          
    640000   332.12941     -1351.4928      299          
    641000   266.8317      -1370.2119      299          
    642000   328.31427     -1345.7833      299          
    643000   310.0851      -1358.9233      299          
    644000   276.60608     -1378.9872      299          
    645000   350.20696     -1337.7847      299          
    646000   309.11786     -1358.9839      299          
    647000   300.6292      -1364.2338      299          
    648000   304.60655     -1353.1284      299          
    649000   325.1905      -1351.8044      299          
    650000   277.50332     -1371.0993      299          
    651000   356.60071     -1338.48        299          
    652000   290.84398     -1367.785       299          
    653000   289.53573     -1356.4887      299          
    654000   276.22262     -1374.8456      299          
    655000   309.07854     -1355.1418      299          
    656000   302.64168     -1367.3981      299          
    657000   318.89835     -1351.3093      299          
    658000   293.05447     -1369.3357      299          
    659000   323.25122     -1347.9515      299          
    660000   304.16516     -1365.6578      299          
    661000   304.39136     -1346.8638      299          
    662000   306.03825     -1359.675       299          
    663000   277.92628     -1375.6369      299          
    664000   303.81418     -1348.9124      299          
    665000   280.24474     -1368.1555      299          
    666000   355.44274     -1331.2505      299          
    667000   295.67871     -1357.6503      299          
    668000   346.73114     -1340.4021      299          
    669000   289.29968     -1366.022       299          
    670000   306.67104     -1350.4043      299          
    671000   273.43817     -1370.89        299          
    672000   297.86194     -1362.9574      299          
    673000   304.78576     -1346.1234      299          
    674000   353.76538     -1337.1859      299          
    675000   309.2911      -1360.7998      299          
    676000   354.14034     -1342.3124      299          
    677000   313.7231      -1361.4153      299          
    678000   301.45803     -1356.3914      299          
    679000   270.36928     -1373.4588      299          
    680000   291.8014      -1357.543       299          
    681000   268.99744     -1371.7893      299          
    682000   302.46317     -1348.4246      299          
    683000   294.96881     -1361.5648      299          
    684000   333.51948     -1348.8483      299          
    685000   295.14642     -1363.247       299          
    686000   302.74201     -1357.1033      299          
    687000   301.28303     -1353.058       299          
    688000   329.12584     -1345.2105      299          
    689000   266.70509     -1369.4315      299          
    690000   295.35602     -1361.1761      299          
    691000   300.63815     -1365.8938      299          
    692000   330.85461     -1355.1636      299          
    693000   293.93009     -1365.9516      299          
    694000   321.95351     -1344.4635      299          
    695000   277.1251      -1365.4544      299          
    696000   278.75006     -1363.7282      299          
    697000   286.02281     -1359.639       299          
    698000   312.61006     -1364.2112      299          
    699000   297.49206     -1355.2527      299          
    700000   323.67786     -1350.1907      299          
    701000   293.00148     -1366.4164      299          
    702000   299.11813     -1357.9915      299          
    703000   318.4557      -1349.1548      299          
    704000   292.98386     -1360.6577      299          
    705000   329.70459     -1344.4287      299          
    706000   320.68959     -1362.1856      299          
    707000   283.75462     -1367.6759      299          
    708000   314.42764     -1345.6367      299          
    709000   291.39911     -1359.6183      299          
    710000   295.99235     -1367.4113      299          
    711000   308.67192     -1352.8913      299          
    712000   289.67887     -1370.3647      299          
    713000   278.30553     -1364.3973      299          
    714000   292.48048     -1358.2757      299          
    715000   294.54651     -1368.5954      299          
    716000   325.28931     -1349.4419      299          
    717000   302.90426     -1358.7106      299          
    718000   285.87111     -1367.9562      299          
    719000   328.34691     -1342.0177      299          
    720000   262.53846     -1373.6485      299          
    721000   323.13379     -1343.1563      299          
    722000   285.05487     -1370.9244      299          
    723000   305.63778     -1356.2844      299          
    724000   309.35794     -1347.7716      299          
    725000   314.73911     -1357.7215      299          
    726000   291.56886     -1368.1877      299          
    727000   307.9825      -1352.6068      299          
    728000   332.47742     -1341.2902      299          
    729000   291.19891     -1362.512       299          
    730000   277.47023     -1374.409       299          
    731000   303.66282     -1359.0422      299          
    732000   301.32475     -1365.167       299          
    733000   271.07185     -1368.2346      299          
    734000   308.35137     -1360.7716      299          
    735000   283.85388     -1368.7989      299          
    736000   279.87521     -1359.0991      299          
    737000   331.7751      -1345.5192      299          
    738000   267.23232     -1374.9802      299          
    739000   287.80713     -1365.1357      299          
    740000   296.82452     -1355.3853      299          
    741000   276.11808     -1367.0166      299          
    742000   319.32198     -1350.7781      299          
    743000   261.54871     -1379.0293      299          
    744000   301.8291      -1353.1         299          
    745000   297.45726     -1362.6264      299          
    746000   332.53748     -1337.1639      299          
    747000   266.88475     -1374.7811      299          
    748000   324.99048     -1352.4323      299          
    749000   273.44515     -1374.7242      299          
    750000   284.72389     -1365.3258      299          
    751000   332.07413     -1343.9986      299          
    752000   289.84616     -1364.5755      299          
    753000   317.452       -1352.1295      299          
    754000   295.43242     -1360.9863      299          
    755000   340.4712      -1338.8338      299          
    756000   305.85502     -1361.0471      299          
    757000   286.66439     -1366.8204      299          
    758000   288.01726     -1370.4297      299          
    759000   295.76981     -1352.0139      299          
    760000   315.03526     -1356.8365      299          
    761000   321.60823     -1361.6564      299          
    762000   274.92341     -1372.6655      299          
    763000   292.3275      -1357.63        299          
    764000   301.03494     -1358.7875      299          
    765000   298.09227     -1351.6114      299          
    766000   297.89711     -1359.2088      299          
    767000   287.9588      -1366.8359      299          
    768000   301.67566     -1356.5981      299          
    769000   297.12349     -1365.5235      299          
    770000   290.21301     -1355.7945      299          
    771000   324.84477     -1345.6289      299          
    772000   313.23402     -1352.9724      299          
    773000   346.5266      -1336.3371      299          
    774000   303.39085     -1355.7505      299          
    775000   278.48664     -1364.4941      299          
    776000   293.3575      -1354.6587      299          
    777000   328.00284     -1352.3107      299          
    778000   291.4072      -1360.2069      299          
    779000   331.33123     -1342.3873      299          
    780000   284.97807     -1360.8642      299          
    781000   330.07835     -1341.3667      299          
    782000   353.15486     -1335.9802      299          
    783000   300.11719     -1364.2864      299          
    784000   282.55633     -1363.1173      299          
    785000   307.37972     -1356.4764      299          
    786000   306.1581      -1354.3037      299          
    787000   279.64459     -1375.5651      299          
    788000   295.43115     -1356.4968      299          
    789000   322.65914     -1355.1981      299          
    790000   341.595       -1343.3346      299          
    791000   300.87601     -1365.2555      299          
    792000   316.28105     -1343.4125      299          
    793000   300.82143     -1363.8179      299          
    794000   315.3713      -1345.9581      299          
    795000   264.19752     -1369.0526      299          
    796000   314.26575     -1348.5121      299          
    797000   303.40551     -1358.2863      299          
    798000   336.98395     -1339.0788      299          
    799000   303.17166     -1360.6141      299          
    800000   295.69416     -1364.0775      299          
    801000   343.81109     -1346.0916      299          
    802000   258.33248     -1369.6086      299          
    803000   321.16708     -1348.8122      299          
    804000   363.84111     -1329.5596      299          
    805000   307.35631     -1357.9687      299          
    806000   286.40287     -1356.9978      299          
    807000   296.8606      -1357.8086      299          
    808000   358.47737     -1337.4396      299          
    809000   269.45159     -1365.3212      299          
    810000   307.05254     -1354.4388      299          
    811000   321.23939     -1348.0278      299          
    812000   312.74178     -1362.9055      299          
    813000   333.84045     -1348.7872      299          
    814000   283.10914     -1367.0895      299          
    815000   274.96275     -1363.5663      299          
    816000   330.4064      -1342.5522      299          
    817000   308.72441     -1360.4905      299          
    818000   279.61229     -1367.4367      299          
    819000   288.3833      -1359.4129      299          
    820000   304.75061     -1358.4154      299          
    821000   292.49178     -1355.2441      299          
    822000   243.77188     -1378.0431      299          
    823000   343.90828     -1345.7599      299          
    824000   284.85732     -1359.9532      299          
    825000   305.42118     -1359.3994      299          
    826000   274.37683     -1359.5268      299          
    827000   292.7462      -1361.7987      299          
    828000   325.02728     -1347.2317      299          
    829000   291.51423     -1369.335       299          
    830000   296.35614     -1355.5602      299          
    831000   342.69179     -1340.2756      299          
    832000   294.98205     -1358.7276      299          
    833000   292.88543     -1357.3096      299          
    834000   285.33869     -1365.3071      299          
    835000   314.54526     -1355.793       299          
    836000   290.08682     -1364.4998      299          
    837000   296.52838     -1364.1349      299          
    838000   292.91954     -1358.7581      299          
    839000   273.20314     -1358.5144      299          
    840000   324.64705     -1344.7839      299          
    841000   274.6054      -1369.3969      299          
    842000   303.14423     -1354.5653      299          
    843000   348.61167     -1337.7463      299          
    844000   319.55637     -1346.345       299          
    845000   288.95657     -1371.0786      299          
    846000   289.57993     -1357.0851      299          
    847000   304.90696     -1360.6093      299          
    848000   309.35626     -1352.7818      299          
    849000   293.89569     -1362.8282      299          
    850000   276.93657     -1362.1627      299          
    851000   354.57701     -1340.0449      299          
    852000   312.85314     -1360.84        299          
    853000   304.91697     -1355.3975      299          
    854000   307.47646     -1358.9571      299          
    855000   295.3638      -1359.1928      299          
    856000   270.13747     -1378.9458      299          
    857000   297.97056     -1360.6126      299          
    858000   350.26969     -1343.9392      299          
    859000   261.86433     -1375.5344      299          
    860000   334.10311     -1344.5807      299          
    861000   313.03435     -1359.9576      299          
    862000   304.88735     -1352.0354      299          
    863000   283.0783      -1363.2247      299          
    864000   302.16902     -1356.0519      299          
    865000   260.71035     -1370.1235      299          
    866000   313.084       -1355.7122      299          
    867000   274.82762     -1364.493       299          
    868000   339.12707     -1337.1149      299          
    869000   253.15694     -1380.8186      299          
    870000   325.98598     -1341.3706      299          
    871000   287.48648     -1363.7045      299          
    872000   278.07629     -1372.4324      299          
    873000   313.87821     -1349.5342      299          
    874000   329.94392     -1358.175       299          
    875000   299.85666     -1354.6059      299          
    876000   291.5298      -1365.6991      299          
    877000   320.11752     -1347.94        299          
    878000   287.28857     -1366.6424      299          
    879000   304.91037     -1353.1989      299          
    880000   311.3132      -1351.6308      299          
    881000   278.43152     -1370.4754      299          
    882000   332.63969     -1347.5652      299          
    883000   282.3594      -1368.2639      299          
    884000   326.64861     -1342.5237      299          
    885000   275.26267     -1372.1224      299          
    886000   277.50144     -1367.4299      299          
    887000   344.3458      -1334.6528      299          
    888000   330.35386     -1350.4307      299          
    889000   301.67421     -1355.861       299          
    890000   305.70926     -1353.6555      299          
    891000   318.13581     -1363.1426      299          
    892000   277.39129     -1373.4409      299          
    893000   285.27052     -1357.0071      299          
    894000   299.66306     -1367.0788      299          
    895000   282.02629     -1365.7641      299          
    896000   293.31618     -1364.2112      299          
    897000   331.07488     -1350.9717      299          
    898000   291.20136     -1362.6605      299          
    899000   321.58638     -1349.9109      299          
    900000   300.87888     -1364.0937      299          
    901000   305.60459     -1363.0967      299          
    902000   262.12688     -1371.5934      299          
    903000   329.96135     -1342.5667      299          
    904000   289.97038     -1365.4694      299          
    905000   319.82375     -1352.7648      299          
    906000   279.9087      -1366.9531      299          
    907000   289.50028     -1366.3178      299          
    908000   314.30841     -1350.1242      299          
    909000   362.91843     -1344.2534      299          
    910000   275.43084     -1362.0637      299          
    911000   280.33516     -1371.5828      299          
    912000   336.11162     -1342.6413      299          
    913000   274.9248      -1363.0193      299          
    914000   320.05246     -1339.666       299          
    915000   309.28251     -1353.9574      299          
    916000   299.90748     -1365.0794      299          
    917000   298.68596     -1358.2529      299          
    918000   310.60341     -1353.9454      299          
    919000   290.64424     -1363.6286      299          
    920000   306.08914     -1350.6953      299          
    921000   297.32907     -1364.7664      299          
    922000   272.49556     -1377.4455      299          
    923000   351.94619     -1355.6905      299          
    924000   308.93256     -1359.9471      299          
    925000   279.88505     -1371.9804      299          
    926000   293.03167     -1349.1346      299          
    927000   302.14793     -1364.0383      299          
    928000   295.00565     -1362.6659      299          
    929000   353.59958     -1340.6432      299          
    930000   286.14273     -1368.1648      299          
    931000   321.93829     -1354.4225      299          
    932000   283.66778     -1373.4224      299          
    933000   295.35791     -1370.3013      299          
    934000   310.36054     -1352.8813      299          
    935000   348.17545     -1350.5694      299          
    936000   291.53824     -1363.818       299          
    937000   284.30512     -1359.3412      299          
    938000   318.75176     -1352.0128      299          
    939000   299.48547     -1364.7792      299          
    940000   302.40343     -1356.6284      299          
    941000   310.83713     -1361.1048      299          
    942000   302.33365     -1353.8342      299          
    943000   342.64837     -1352.5673      299          
    944000   335.2781      -1344.7895      299          
    945000   281.29997     -1370.1492      299          
    946000   304.52493     -1356.0616      299          
    947000   324.82403     -1346.3453      299          
    948000   272.66222     -1370.4821      299          
    949000   330.27912     -1344.2068      299          
    950000   305.95844     -1361.7584      299          
    951000   284.88771     -1365.3921      299          
    952000   310.38201     -1350.1246      299          
    953000   300.80348     -1361.8099      299          
    954000   258.37398     -1373.5941      299          
    955000   304.50406     -1357.9555      299          
    956000   297.88262     -1351.8789      299          
    957000   312.84652     -1356.9693      299          
    958000   293.58409     -1367.3328      299          
    959000   286.07468     -1357.4875      299          
    960000   343.79708     -1347.9038      299          
    961000   298.05801     -1368.6696      299          
    962000   308.6315      -1351.8287      299          
    963000   294.91202     -1358.8202      299          
    964000   286.47375     -1358.3076      299          
    965000   296.30553     -1364.3877      299          
    966000   341.61763     -1348.1157      299          
    967000   312.46422     -1362.4977      299          
    968000   284.91277     -1355.6585      299          
    969000   289.01004     -1368.2034      299          
    970000   300.51867     -1355.7703      299          
    971000   326.16089     -1350.5001      299          
    972000   320.65788     -1353.2051      299          
    973000   311.51459     -1349.6358      299          
    974000   319.99458     -1351.0385      299          
    975000   293.41181     -1364.795       299          
    976000   299.88276     -1356.216       299          
    977000   298.45014     -1363.9009      299          
    978000   272.47836     -1371.5763      299          
    979000   299.47593     -1353.5033      299          
    980000   276.0747      -1361.3661      299          
    981000   318.6183      -1351.1912      299          
    982000   288.50048     -1364.815       299          
    983000   316.15161     -1353.8587      299          
    984000   315.57971     -1356.4412      299          
    985000   271.88776     -1370.37        299          
    986000   283.48916     -1367.957       299          
    987000   319.54637     -1351.0335      299          
    988000   276.75335     -1368.2761      299          
    989000   321.82146     -1347.3556      299          
    990000   265.02328     -1376.2671      299          
    991000   283.35502     -1368.7331      299          
    992000   310.48239     -1354.0124      299          
    993000   318.69683     -1353.2336      299          
    994000   299.92538     -1363.5475      299          
    995000   329.24675     -1347.0153      299          
    996000   336.19982     -1350.6527      299          
    997000   310.62209     -1364.1083      299          
    998000   292.472       -1363.1648      299          
    999000   317.92187     -1343.3885      299          
   1000000   308.00645     -1355.783       299          
   1001000   301.89369     -1363.1663      299          
   1002000   309.49135     -1360.4475      299          
   1003000   285.82005     -1370.5929      299          
   1004000   267.34446     -1377.644       299          
   1005000   320.51702     -1352.6212      299          
   1006000   343.88942     -1348.3773      299          
   1007000   268.83354     -1365.0704      299          
   1008000   280.74094     -1370.5629      299          
   1009000   293.90544     -1354.7877      299          
   1010000   272.69758     -1371.2687      299          
   1011000   310.38143     -1361.7327      300          
   1012000   298.33952     -1365.7085      300          
   1013000   270.66351     -1377.1245      300          
   1014000   294.72033     -1357.659       300          
   1015000   280.92896     -1378.6868      300          
   1016000   286.97748     -1370.7598      300          
   1017000   299.06589     -1372.4307      300          
   1018000   326.09747     -1346.9008      300          
   1019000   299.43811     -1371.0397      300          
   1020000   349.12622     -1353.1651      300          
   1021000   257.40595     -1383.8127      300          
   1022000   316.01607     -1357.1969      300          
   1023000   285.32499     -1381.527       300          
   1024000   281.39166     -1372.7761      300          
   1025000   265.10165     -1384.1476      300          
   1026000   300.03571     -1362.9516      300          
   1027000   306.32964     -1365.5866      300          
   1028000   322.54894     -1355.1862      300          
   1029000   305.7664      -1369.9764      300          
   1030000   306.43989     -1362.5767      300          
   1031000   329.25681     -1356.4048      300          
   1032000   304.29321     -1367.5063      300          
   1033000   288.26308     -1366.1247      300          
   1034000   283.57968     -1369.8662      300          
   1035000   307.87781     -1360.8543      300          
   1036000   281.46735     -1367.4149      300          
   1037000   347.72167     -1351.6805      300          
   1038000   285.09624     -1373.7536      300          
   1039000   333.70759     -1351.2774      300          
   1040000   240.47965     -1388.9902      300          
   1041000   310.45376     -1357.1845      300          
   1042000   346.13948     -1352.8262      300          
   1043000   280.01898     -1383.225       300          
   1044000   321.277       -1350.8016      300          
   1045000   318.25072     -1368.804       300          
   1046000   302.96688     -1370.1688      300          
   1047000   329.90661     -1354.6275      300          
   1048000   291.36745     -1375.6671      300          
   1049000   296.13525     -1366.7728      300          
   1050000   312.46574     -1365.9879      300          
   1051000   323.28848     -1353.3544      300          
   1052000   317.77421     -1365.0728      300          
   1053000   289.7786      -1372.8865      300          
   1054000   326.03792     -1356.2832      300          
   1055000   298.29524     -1374.319       300          
   1056000   303.2275      -1366.4751      300          
   1057000   285.03981     -1373.6792      300          
   1058000   315.85177     -1361.6239      300          
   1059000   291.74924     -1378.9809      300          
   1060000   325.43981     -1349.1046      300          
   1061000   308.3516      -1371.461       300          
   1062000   298.58731     -1362.5714      300          
   1063000   342.52258     -1362.8377      300          
   1064000   309.55906     -1359.0326      300          
   1065000   290.13541     -1371.5137      300          
   1066000   309.572       -1364.0208      300          
   1067000   308.25396     -1367.1171      300          
   1068000   318.13538     -1363.2132      300          
   1069000   310.26057     -1371.0047      300          
   1070000   266.44973     -1383.0624      300          
   1071000   276.87501     -1367.9397      300          
   1072000   307.40645     -1366.7544      300          
   1073000   296.87375     -1367.6267      300          
   1074000   322.92913     -1355.3964      300          
   1075000   302.77236     -1371.853       300          
   1076000   310.46753     -1361.6104      300          
   1077000   315.76102     -1366.0177      300          
   1078000   294.10636     -1375.593       300          
   1079000   299.04905     -1362.7646      300          
   1080000   315.82198     -1364.1001      300          
   1081000   322.67043     -1358.7968      300          
   1082000   315.28806     -1370.6166      300          
   1083000   306.94148     -1371.2036      300          
   1084000   279.73846     -1376.3487      300          
   1085000   274.50992     -1379.2357      300          
   1086000   293.72545     -1373.899       300          
   1087000   302.45728     -1360.0669      300          
   1088000   259.59408     -1381.7933      300          
   1089000   326.97095     -1354.1186      300          
   1090000   285.83296     -1370.812       300          
   1091000   343.2018      -1354.9522      300          
   1092000   322.37767     -1365.9486      300          
   1093000   282.52114     -1377.9386      300          
   1094000   303.91428     -1362.802       300          
   1095000   365.8896      -1344.811       300          
   1096000   293.28962     -1378.799       300          
   1097000   309.77155     -1368.5097      300          
   1098000   334.67995     -1361.9882      300          
   1099000   355.86236     -1352.8635      300          
   1100000   286.78996     -1373.8781      300          
   1101000   327.9616      -1350.9129      300          
   1102000   312.83333     -1363.0665      300          
   1103000   276.68279     -1374.6489      300          
   1104000   327.35125     -1354.3487      300          
   1105000   323.77056     -1355.5036      300          
   1106000   295.14134     -1369.8061      300          
   1107000   289.12812     -1363.4856      300          
   1108000   318.10104     -1361.9517      300          
   1109000   304.71843     -1359.3611      300          
   1110000   305.79646     -1371.2659      300          
   1111000   301.39204     -1369.9943      300          
   1112000   318.70865     -1365.7896      300          
   1113000   321.72224     -1359.3276      300          
   1114000   271.65255     -1386.4713      300          
   1115000   305.10569     -1362.3817      300          
   1116000   286.32823     -1379.8751      300          
   1117000   307.42351     -1365.407       300          
   1118000   304.7854      -1368.0921      300          
   1119000   274.6642      -1375.883       300          
   1120000   309.27422     -1357.0778      300          
   1121000   303.92176     -1363.2269      300          
   1122000   286.51081     -1370.5662      300          
   1123000   303.37258     -1359.4234      300          
   1124000   336.43208     -1358.6991      300          
   1125000   315.81335     -1366.4804      300          
   1126000   347.40747     -1347.2988      300          
   1127000   342.55077     -1361.2419      300          
   1128000   289.96007     -1380.8491      300          
   1129000   320.26391     -1360.3724      300          
   1130000   303.79936     -1370.3792      300          
   1131000   274.46319     -1380.5775      300          
   1132000   333.48829     -1350.8812      300          
   1133000   314.13472     -1367.2013      300          
   1134000   287.15947     -1371.7681      300          
   1135000   319.72987     -1355.5408      300          
   1136000   290.5326      -1376.0234      300          
   1137000   303.77876     -1370.2812      300          
   1138000   308.41681     -1370.6525      300          
   1139000   285.45778     -1380.5919      300          
   1140000   318.9931      -1358.3961      300          
   1141000   288.72601     -1367.9955      300          
   1142000   296.90991     -1370.9024      300          
   1143000   321.22389     -1355.6914      300          
   1144000   309.29745     -1366.3939      300          
   1145000   297.27658     -1375.6159      300          
   1146000   306.44517     -1361.2595      300          
   1147000   288.29327     -1370.3778      300          
   1148000   315.59079     -1368.4239      300          
   1149000   279.3116      -1373.8764      300          
   1150000   313.09973     -1366.9244      300          
   1151000   342.88228     -1348.3431      300          
   1152000   252.5265      -1388.8313      300          
   1153000   296.35836     -1362.2093      300          
   1154000   310.1884      -1377.6723      300          
   1155000   284.07271     -1373.4552      300          
   1156000   301.68        -1370.6425      300          
   1157000   265.78737     -1385.1482      300          
   1158000   309.11615     -1361.1167      300          
   1159000   273.58217     -1384.5326      300          
   1160000   262.92754     -1374.8411      300          
   1161000   301.49037     -1371.3056      300          
   1162000   283.44878     -1374.1281      300          
   1163000   325.82708     -1364.0394      300          
   1164000   271.18299     -1386.9138      300          
   1165000   286.20709     -1376.7181      300          
   1166000   315.29543     -1363.3534      300          
   1167000   301.00457     -1369.4692      300          
   1168000   296.97459     -1373.3126      300          
   1169000   280.10625     -1385.424       300          
   1170000   292.18642     -1379.444       300          
   1171000   354.20996     -1346.0142      300          
   1172000   308.0561      -1369.3496      300          
   1173000   279.60188     -1378.0339      300          
   1174000   283.70463     -1365.8824      300          
   1175000   306.51617     -1371.2416      300          
   1176000   300.5221      -1368.3222      300          
   1177000   303.0793      -1367.9585      300          
   1178000   324.30559     -1361.1594      300          
   1179000   328.52598     -1360.4248      300          
   1180000   275.23087     -1377.0881      300          
   1181000   338.83002     -1355.8469      300          
   1182000   270.85389     -1380.9721      300          
   1183000   292.46161     -1378.2934      300          
   1184000   320.35632     -1365.0866      300          
   1185000   266.17926     -1381.3707      300          
   1186000   300.6183      -1361.4514      300          
   1187000   302.18053     -1375.2574      300          
   1188000   290.04672     -1376.2493      300          
   1189000   284.93961     -1372.8841      300          
   1190000   285.46195     -1379.0131      300          
   1191000   311.01371     -1372.6826      300          
   1192000   303.42863     -1366.7881      300          
   1193000   312.9576      -1365.2222      300          
   1194000   299.48604     -1372.98        300          
   1195000   295.04458     -1367.8783      300          
   1196000   269.64396     -1378.055       300          
   1197000   283.42228     -1379.2746      300          
   1198000   324.37659     -1358.6798      300          
   1199000   268.46202     -1381.0891      300          
   1200000   315.67786     -1368.85        300          
   1201000   301.17581     -1372.0304      300          
   1202000   329.97821     -1351.47        300          
   1203000   309.10777     -1376.6405      300          
   1204000   288.87462     -1374.7143      300          
   1205000   334.73488     -1357.5579      300          
   1206000   297.38579     -1372.2579      300          
   1207000   315.99211     -1368.1004      300          
   1208000   276.27013     -1387.8462      300          
   1209000   299.02557     -1365.5614      300          
   1210000   316.81142     -1352.689       300          
   1211000   318.96714     -1373.2937      300          
   1212000   294.94028     -1376.455       300          
   1213000   318.97198     -1361.0092      300          
   1214000   285.22234     -1381.3266      300          
   1215000   306.98001     -1356.6633      300          
   1216000   289.72651     -1375.4853      300          
   1217000   291.21286     -1361.6077      300          
   1218000   301.93167     -1372.7532      300          
   1219000   331.84024     -1359.6202      300          
   1220000   340.65763     -1357.0332      300          
   1221000   306.46315     -1372.5239      300          
   1222000   325.75016     -1365.5501      300          
   1223000   298.10785     -1373.5751      300          
   1224000   305.98388     -1370.1215      301          
   1225000   335.44177     -1357.9161      301          
   1226000   281.42466     -1390.2969      301          
   1227000   286.86568     -1391.0733      301          
   1228000   290.37601     -1379.1957      301          
   1229000   334.79186     -1362.914       301          
   1230000   347.44192     -1367.0131      301          
   1231000   323.34366     -1368.8368      301          
   1232000   308.5386      -1378.7233      301          
   1233000   291.33301     -1369.1428      301          
   1234000   301.14876     -1381.441       301          
   1235000   311.6168      -1361.1452      301          
   1236000   295.0551      -1382.3494      301          
   1237000   326.58542     -1362.505       301          
   1238000   280.76295     -1392.8202      301          
   1239000   315.73657     -1367.3036      301          
   1240000   320.20932     -1378.7322      301          
   1241000   302.03317     -1369.6146      301          
   1242000   283.95648     -1380.3091      301          
   1243000   318.12461     -1358.5534      301          
   1244000   290.25091     -1391.1848      301          
   1245000   284.49884     -1374.166       301          
   1246000   273.75047     -1385.1318      301          
   1247000   283.09143     -1374.0627      301          
   1248000   285.99282     -1386.0264      301          
   1249000   311.00376     -1378.4641      301          
   1250000   290.82187     -1382.448       301          
   1251000   302.10548     -1381.928       301          
   1252000   273.37262     -1386.0977      301          
   1253000   326.16075     -1369.5108      301          
   1254000   306.06343     -1377.1069      301          
   1255000   294.48167     -1379.7279      301          
   1256000   302.65911     -1379.7867      301          
   1257000   310.7464      -1362.7975      301          
   1258000   309.19495     -1373.3224      301          
   1259000   324.52328     -1368.4519      301          
   1260000   344.2964      -1357.937       301          
   1261000   273.31322     -1391.3119      301          
   1262000   355.94063     -1356.2701      301          
   1263000   295.58755     -1370.8639      301          
   1264000   284.24322     -1387.7173      301          
   1265000   301.61667     -1374.9058      301          
   1266000   344.547       -1358.1616      301          
   1267000   340.48469     -1365.2202      301          
   1268000   279.19408     -1384.2927      301          
   1269000   275.20104     -1396.6529      301          
   1270000   300.01945     -1382.6716      301          
[...]
   2175000   285.22101     -1397.8928      302          
   2176000   355.59989     -1363.037       302          
   2177000   310.73493     -1380.9705      302          
   2178000   350.29796     -1371.721       302          
   2179000   278.08362     -1396.4957      302          
   2180000   379.62053     -1359.5359      302          
   2181000   299.0227      -1387.6446      302          
   2182000   278.45438     -1402.3123      302          
   2183000   311.56378     -1382.8894      302          
   2184000   279.72705     -1400.0147      302          
   2185000   336.343       -1378.9319      302          
   2186000   296.65003     -1392.2018      302          
   2187000   280.41278     -1397.9346      302          
   2188000   317.96804     -1379.4648      302          
   2189000   281.17623     -1408.6711      302          
   2190000   325.11156     -1377.9446      302          
   2191000   292.40574     -1387.7193      302          
   2192000   326.73428     -1374.4338      302          
   2193000   305.56195     -1388.313       302          
   2194000   292.90245     -1395.716       302          
   2195000   296.46226     -1387.5829      302          
   2196000   312.46905     -1383.1562      302          
   2197000   318.87149     -1382.7776      302          
   2198000   318.70092     -1377.8642      302          
   2199000   313.91092     -1379.7413      302          
   2200000   294.38474     -1389.179       302          
   2201000   324.87221     -1378.8761      302          
   2202000   288.7714      -1384.608       302          
   2203000   301.35485     -1386.4676      302          
   2204000   334.15624     -1377.2151      302          
   2205000   286.5896      -1402.9988      302          
   2206000   318.17674     -1382.2882      302          
   2207000   295.42799     -1392.1383      302          
   2208000   338.21937     -1380.4308      302          
   2209000   289.66421     -1399.2963      302          
   2210000   306.1915      -1389.1139      302          
   2211000   333.45312     -1385.437       302          
   2212000   283.10479     -1398.7908      302          
   2213000   299.32404     -1389.1211      302          
   2214000   287.59539     -1389.7007      302          
   2215000   363.99121     -1365.9841      302          
   2216000   295.26565     -1393.2022      302          
   2217000   258.38076     -1406.7264      302          
   2218000   320.52994     -1378.7054      302          
   2219000   317.48609     -1388.9315      302          
   2220000   279.57966     -1392.0665      302          
   2221000   323.63649     -1380.7107      302          
   2222000   289.32832     -1399.671       302          
   2223000   329.84225     -1379.1514      302          
   2224000   329.0676      -1385.4899      302          
   2225000   289.39013     -1393.9489      302          
   2226000   282.77359     -1390.3265      302          
   2227000   341.2976      -1376.6515      302          
   2228000   286.84199     -1394.8442      302          
   2229000   296.68687     -1398.5836      302          
   2230000   343.87508     -1379.2349      302          
   2231000   342.6304      -1370.1343      302          
   2232000   308.12611     -1396.8572      302          
   2233000   331.60059     -1376.4143      302          
   2234000   288.6995      -1399.7119      302          
   2235000   309.92499     -1379.5769      302          
   2236000   310.15463     -1397.1082      302          
   2237000   304.20508     -1382.036       302          
   2238000   305.9358      -1384.0449      302          
   2239000   306.59486     -1383.6214      302          
   2240000   318.37602     -1387.1196      302          
   2241000   327.91741     -1376.738       302          
   2242000   308.33555     -1389.6619      302          
   2243000   314.52443     -1387.4279      302          
   2244000   293.13193     -1395.1341      302          
   2245000   306.05686     -1388.1162      302          
   2246000   287.69187     -1392.1696      302          
   2247000   333.62987     -1379.2139      302          
   2248000   275.88648     -1404.5119      302          
   2249000   298.035       -1386.6059      302          
   2250000   292.64976     -1395.8912      302          
   2251000   295.39102     -1381.0614      302          
   2252000   329.95188     -1379.824       302          
   2253000   323.74        -1386.1751      302          
   2254000   294.93985     -1391.9775      302          
   2255000   292.70617     -1389.3102      302          
   2256000   343.32743     -1368.2858      302          
   2257000   305.00648     -1398.9825      302          
   2258000   306.99636     -1384.1717      302          
   2259000   295.82528     -1380.4917      302          
   2260000   283.76976     -1390.6631      302          
   2261000   338.92017     -1378.2709      302          
   2262000   302.32707     -1390.9754      302          
   2263000   256.99958     -1411.4313      302          
   2264000   313.92037     -1384.3508      302          
   2265000   310.65441     -1389.3402      302          
   2266000   273.99755     -1403.128       302          
   2267000   340.58873     -1371.7751      302          
   2268000   361.82236     -1367.4992      302          
   2269000   294.26085     -1383.5344      302          
   2270000   352.59503     -1370.1858      302          
   2271000   299.73302     -1391.4761      302          
   2272000   304.57475     -1387.0717      302          
   2273000   276.22808     -1401.4948      302          
   2274000   348.79727     -1369.313       302          
   2275000   296.58032     -1391.982       302          
   2276000   274.63726     -1401.6143      302          
   2277000   283.90832     -1390.4371      302          
   2278000   351.14639     -1378.122       302          
   2279000   279.34646     -1405.3204      302          
   2280000   292.9193      -1396.076       302          
   2281000   325.27853     -1371.8668      302          
   2282000   303.73826     -1392.7574      302          
   2283000   324.47344     -1376.7512      302          
   2284000   305.12877     -1388.5453      302          
   2285000   269.37038     -1395.906       302          
   2286000   311.80107     -1378.7034      302          
   2287000   336.39411     -1377.4463      302          
   2288000   308.48176     -1386.8719      302          
   2289000   319.49863     -1387.7808      302          
   2290000   284.17075     -1392.9606      302          
   2291000   376.46732     -1363.0005      302          
   2292000   300.39936     -1392.3041      302          
   2293000   285.09842     -1398.5052      302          
   2294000   269.85086     -1400.8109      302          
   2295000   272.8026      -1399.7772      302          
   2296000   299.16391     -1383.1707      302          
   2297000   339.57697     -1381.1144      302          
   2298000   312.40343     -1381.3218      302          
   2299000   308.72786     -1396.4127      302          
   2300000   302.07691     -1385.2546      302          
   2301000   300.23452     -1392.6609      302          
   2302000   302.23937     -1385.6635      302          
   2303000   301.17202     -1389.678       302          
   2304000   264.95912     -1400.4715      302          
   2305000   320.53519     -1381.3863      302          
   2306000   282.78363     -1400.1816      302          
   2307000   315.81056     -1374.0618      302          
   2308000   291.06576     -1398.7922      302          
   2309000   303.18012     -1389.3951      302          
   2310000   313.78439     -1379.3738      302          
   2311000   317.21011     -1390.5752      302          
   2312000   273.90937     -1400.992       302          
   2313000   346.05062     -1374.8045      302          
   2314000   296.64297     -1393.6548      302          
   2315000   293.43724     -1395.4539      302          
   2316000   312.83046     -1375.6951      302          
   2317000   278.59575     -1403.3527      302          
   2318000   313.68947     -1393.8459      302          
   2319000   295.53224     -1389.0824      302          
   2320000   274.67184     -1391.1238      302          
   2321000   333.48156     -1383.3806      302          
   2322000   251.7819      -1406.6224      302          
   2323000   300.6256      -1389.4574      302          
   2324000   321.52802     -1377.1753      302          
   2325000   306.51422     -1391.1838      302          
   2326000   315.33539     -1392.9296      302          
   2327000   274.12305     -1397.2736      302          
   2328000   371.90432     -1362.3614      302          
   2329000   275.98068     -1396.5972      302          
   2330000   349.88795     -1371.9216      302          
   2331000   320.49456     -1378.3323      302          
   2332000   340.93911     -1379.0453      302          
   2333000   310.84238     -1394.2779      302          
   2334000   337.89293     -1369.3912      302          
   2335000   297.41194     -1390.5483      302          
   2336000   303.4089      -1383.0316      302          
   2337000   287.88145     -1394.293       302          
   2338000   303.13582     -1381.4372      302          
   2339000   320.85427     -1384.7921      302          
   2340000   317.30117     -1383.2864      302          
   2341000   300.82546     -1395.2558      302          
   2342000   296.45034     -1394.8179      302          
   2343000   337.43468     -1381.3448      302          
   2344000   291.75432     -1393.4571      302          
   2345000   303.69276     -1386.8779      302          
   2346000   280.51203     -1391.2327      302          
   2347000   337.35807     -1371.4416      302          
   2348000   292.93941     -1398.1275      302          
   2349000   291.264       -1386.5845      302          
   2350000   315.80279     -1391.8281      302          
   2351000   321.41955     -1380.9993      302          
   2352000   293.20668     -1398.4541      302          
   2353000   317.67496     -1383.4887      302          
   2354000   317.47189     -1391.4427      302          
   2355000   301.34271     -1388.0207      302          
   2356000   309.60116     -1382.1423      302          
   2357000   288.85503     -1400.7148      302          
   2358000   316.14838     -1387.4817      302          
   2359000   337.60039     -1373.7037      302          
   2360000   293.28912     -1395.7347      302          
   2361000   290.77758     -1390.0709      302          
   2362000   286.34788     -1397.1224      302          
   2363000   290.87551     -1391.6579      302          
   2364000   328.16638     -1380.4993      302          
   2365000   301.58787     -1385.6922      302          
   2366000   298.78845     -1394.7741      302          
   2367000   276.02768     -1404.3748      302          
   2368000   308.09674     -1385.8724      302          
   2369000   275.29124     -1393.6857      302          
   2370000   302.89282     -1386.2603      302          
   2371000   350.7638      -1375.7977      302          
   2372000   308.91394     -1395.3022      302          
   2373000   291.94539     -1388.3477      302          
   2374000   275.79686     -1406.1035      302          
   2375000   299.11619     -1393.6296      302          
   2376000   340.66181     -1376.7325      302          
   2377000   337.3755      -1379.9852      302          
   2378000   291.35989     -1398.2592      302          
   2379000   309.52613     -1382.7584      302          
   2380000   328.65913     -1372.0627      302          
   2381000   259.36948     -1404.2931      302          
   2382000   293.36469     -1387.3717      302          
   2383000   299.92667     -1385.1364      302          
   2384000   336.37004     -1378.7836      302          
   2385000   297.46211     -1398.8366      302          
   2386000   320.66675     -1385.5401      303          
   2387000   285.82575     -1406.7173      303          
   2388000   315.67612     -1392.1818      303          
   2389000   298.71813     -1394.1063      303          
   2390000   344.53015     -1386.3492      303          
   2391000   277.23799     -1408.8223      303          
   2392000   355.75984     -1382.2127      303          
   2393000   279.89214     -1405.6998      303          
   2394000   280.99766     -1405.8049      303          
   2395000   350.19548     -1375.3793      303          
   2396000   271.14177     -1408.9035      303          
   2397000   290.75593     -1392.0228      303          
   2398000   301.99772     -1396.7487      303          
   2399000   285.6501      -1407.3117      303          
   2400000   345.3241      -1384.1197      303          
   2401000   276.29199     -1403.7079      303          
   2402000   368.56227     -1379.9651      303          
   2403000   255.90819     -1420.2074      303          
   2404000   316.78835     -1385.6381      303          
   2405000   299.045       -1406.4798      303          
   2406000   349.82229     -1375.3042      303          
   2407000   293.19793     -1400.723       303          
   2408000   340.21436     -1380.6039      303          
   2409000   330.07363     -1389.344       303          
   2410000   308.65121     -1397.9915      303          
   2411000   332.08384     -1382.7569      303          
   2412000   293.17288     -1401.0551      303          
   2413000   305.77678     -1392.174       303          
   2414000   336.15029     -1385.423       303          
   2415000   284.63502     -1411.8162      303          
   2416000   285.65148     -1402.008       303          
   2417000   309.43169     -1388.5734      303          
   2418000   311.98769     -1405.0731      303          
   2419000   292.07199     -1409.7425      303          
   2420000   298.32488     -1397.4952      303          
   2421000   263.53709     -1405.5474      303          
   2422000   317.88916     -1398.146       303          
   2423000   312.71676     -1390.5593      303          
   2424000   293.95059     -1402.8886      303          
   2425000   291.68295     -1407.7427      303          
   2426000   309.61576     -1396.3303      303          
   2427000   243.04956     -1422.2215      303          
   2428000   291.04395     -1400.1667      303          
   2429000   320.77254     -1382.0016      303          
   2430000   299.34148     -1405.0193      303          
   2431000   335.16125     -1382.2589      303          
   2432000   276.9079      -1412.8574      303          
   2433000   293.80041     -1400.9698      303          
   2434000   310.46675     -1392.7358      303          
   2435000   337.95458     -1388.4136      303          
   2436000   317.50585     -1390.8564      303          
   2437000   266.79549     -1404.8555      303          
   2438000   288.07294     -1393.3482      303          
   2439000   292.57878     -1393.2961      303          
   2440000   336.76166     -1392.8348      303          
   2441000   283.74587     -1411.7447      303          
   2442000   293.29737     -1396.8216      303          
   2443000   334.27483     -1392.4827      303          
   2444000   262.61701     -1418.8537      303          
   2445000   300.76092     -1396.3507      303          
   2446000   326.78459     -1392.707       303          
   2447000   329.96976     -1401.1085      303          
   2448000   285.25877     -1404.0988      303          
   2449000   315.64021     -1395.3435      303          
   2450000   273.54666     -1410.6456      303          
   2451000   338.04135     -1381.9961      303          
   2452000   337.93237     -1388.1756      303          
   2453000   274.16406     -1413.2584      303          
   2454000   308.66627     -1392.3105      304          
   2455000   327.83246     -1390.3267      304          
   2456000   314.09227     -1397.2367      304          
   2457000   323.93032     -1393.4149      304          
   2458000   278.97129     -1423.7782      304          
   2459000   344.59525     -1389.7505      304          
   2460000   320.1511      -1396.7383      304          
   2461000   282.97053     -1412.4898      304          
   2462000   320.60014     -1386.6044      304          
   2463000   285.29622     -1417.3384      304          
   2464000   330.22488     -1394.9896      304          
   2465000   319.90744     -1402.5963      304          
   2466000   305.10695     -1395.9134      304          
   2467000   298.19735     -1409.1729      304          
   2468000   302.12158     -1398.9922      304          
   2469000   290.54996     -1415.8351      304          
   2470000   290.79144     -1407.7061      304          
   2471000   304.71472     -1403.3942      304          
   2472000   284.90241     -1416.1799      304          
   2473000   324.36055     -1392.6218      304          
   2474000   309.23424     -1407.3325      304          
   2475000   308.34628     -1395.2427      304          
   2476000   256.45914     -1424.026       304          
   2477000   328.85845     -1391.4325      304          
   2478000   289.51471     -1411.6249      304          
   2479000   318.3405      -1396.6395      304          
   2480000   311.80838     -1401.6125      304          
   2481000   291.17413     -1397.5466      304          
   2482000   376.23908     -1376.1243      304          
   2483000   277.22111     -1414.7467      304          
   2484000   318.35392     -1399.3482      304          
   2485000   280.45848     -1411.5338      304          
   2486000   316.39175     -1406.8957      304          
   2487000   287.42175     -1412.4972      304          
   2488000   330.0169      -1385.7259      304          
   2489000   359.55872     -1386.6942      304          
   2490000   307.94827     -1410.1594      304          
   2491000   309.45107     -1394.8709      304          
   2492000   279.86404     -1410.7655      304          
   2493000   312.76488     -1399.6814      304          
   2494000   281.6464      -1415.8585      304          
   2495000   323.21136     -1397.7254      304          
   2496000   285.64741     -1411.9075      304          
   2497000   272.92974     -1409.045       304          
   2498000   307.20633     -1402.4463      304          
   2499000   294.83467     -1415.4246      304          
   2500000   272.8115      -1411.0974      304          
   2501000   287.27353     -1403.9128      304          
   2502000   272.66054     -1422.4096      304          
Loop time of 16071.6 on 8 procs for 2500000 steps with 912 atoms

Performance: 13.440 ns/day, 1.786 hours/ns, 155.554 timesteps/s, 141.865 katom-step/s
799.8% CPU use with 1 MPI tasks x 8 OpenMP threads

MPI task timing breakdown:
Section |  min time  |  avg time  |  max time  |%varavg| %total
---------------------------------------------------------------
Pair    | 1497.6     | 1497.6     | 1497.6     |   0.0 |  9.32
Bond    | 23.215     | 23.215     | 23.215     |   0.0 |  0.14
Kspace  | 807.9      | 807.9      | 807.9      |   0.0 |  5.03
Neigh   | 74.99      | 74.99      | 74.99      |   0.0 |  0.47
Comm    | 102.77     | 102.77     | 102.77     |   0.0 |  0.64
Output  | 0.045103   | 0.045103   | 0.045103   |   0.0 |  0.00
Modify  | 13559      | 13559      | 13559      |   0.0 | 84.36
Other   |            | 6.404      |            |       |  0.04

Nlocal:            912 ave         912 max         912 min
Histogram: 1 0 0 0 0 0 0 0 0 0
Nghost:           7813 ave        7813 max        7813 min
Histogram: 1 0 0 0 0 0 0 0 0 0
Neighs:         305637 ave      305637 max      305637 min
Histogram: 1 0 0 0 0 0 0 0 0 0

Total # of neighbors = 305637
Ave neighs/atom = 335.12829
Ave special neighs/atom = 2
Neighbor list builds = 2550027
Dangerous builds = 0
Total wall time: 4:27:52
