LAMMPS (27 Jun 2024)
  using 8 OpenMP thread(s) per MPI task
package omp 0
using multi-threaded neighbor list subroutines
# LAMMPS input script by Simon Gravelle
# For LAMMPS tutorials, see https://lammpstutorials.github.io
# Last tested using the 27Jun2024 LAMMPS version

variable Nstep equal 2500000
variable mu_K equal -4000
variable mu_kcal_mol equal ${mu_K}*0.0019872041
variable mu_kcal_mol equal -4000*0.0019872041
print "mu equal ${mu_kcal_mol}"
mu equal -7.9488164
variable tfac equal 5.0/3.0
variable Nattempt equal 100

units real
boundary p p p
atom_style full
pair_style lj/cut/coul/long 12
kspace_style ewald 1.0e-5
bond_style harmonic
angle_style harmonic
pair_modify mix geometric
special_bonds lj 0.0 0.0 0.0 coul 0.0 0.0 0.0 angle yes

read_data box.data
Reading data file ...
  orthogonal box = (-12.5 -12.5 -12.5) to (12.5 12.5 12.5)
  1 by 1 by 1 MPI processor grid
  reading atom labelmap ...
  reading bond labelmap ...
  reading angle labelmap ...
  reading atoms ...
  75 atoms
  reading velocities ...
  75 velocities
  scanning bonds ...
  1 = max bonds/atom
  scanning angles ...
  1 = max angles/atom
  orthogonal box = (-12.5 -12.5 -12.5) to (12.5 12.5 12.5)
  1 by 1 by 1 MPI processor grid
  reading bonds ...
  50 bonds
  reading angles ...
  25 angles
Finding 1-2 1-3 1-4 neighbors ...
  special bond factors lj:    0        0        0       
  special bond factors coul:  0        0        0       
     2 = max # of 1-2 neighbors
     1 = max # of 1-3 neighbors
     1 = max # of 1-4 neighbors
  50 = # of 1-3 neighbors before angle trim
  50 = # of 1-3 neighbors after angle trim
     2 = max # of special neighbors
  special bonds CPU = 0.000 seconds
  read_data CPU = 0.011 seconds
labelmap atom 1 O 2 H
labelmap bond 1 O-H
labelmap angle 1 H-O-H

group H2O type O H
75 atoms in group H2O
include parm.lmp
# LAMMPS parameter file for H2O SPCE water model
# For conversion from K to kcal / mol, multiply
# by Boltzmann = 0.0019872041 kcal / (mol * K)

mass O 15.9994 # O
mass H 1.00784 # H

pair_coeff O O 0.15535 3.166
pair_coeff H H 0.0 1.0

bond_coeff O-H 0.0 1.0 # rigid

angle_coeff H-O-H 0.0 109.47 # rigid
molecule h2Omol H2O.mol
Read molecule template h2Omol:
# LAMMPS molecule file for carbondioxide
  1 molecules
  0 fragments
  3 atoms with max type 2
  2 bonds with max type 1
  1 angles with max type 1
  0 dihedrals with max type 0
  0 impropers with max type 0

fix mynvt H2O rigid/nvt/small molecule temp 300 300 100 mol h2Omol
  create bodies CPU = 0.000 seconds
  25 rigid bodies with 75 atoms
  1 = max distance from body owner to body atom
thermo 1000

run 2000

CITE-CITE-CITE-CITE-CITE-CITE-CITE-CITE-CITE-CITE-CITE-CITE-CITE

Your simulation uses code contributions which should be cited:

- Type Label Framework: https://doi.org/10.1021/acs.jpcb.3c08419

@Article{Gissinger24,
 author = {Jacob R. Gissinger, Ilia Nikiforov, Yaser Afshar, Brendon Waters, Moon-ki Choi, Daniel S. Karls, Alexander Stukowski, Wonpil Im, Hendrik Heinz, Axel Kohlmeyer, and Ellad B. Tadmor},
 title = {Type Label Framework for Bonded Force Fields in LAMMPS},
 journal = {J. Phys. Chem. B},
 year =    2024,
 volume =  128,
 number =  13,
 pages =   {3282–-3297}
}

CITE-CITE-CITE-CITE-CITE-CITE-CITE-CITE-CITE-CITE-CITE-CITE-CITE

Ewald initialization ...
  using 12-bit tables for long-range coulomb (src/kspace.cpp:342)
  G vector (1/distance) = 0.22469438
  estimated absolute RMS force accuracy = 0.0038172427
  estimated relative force accuracy = 1.1495513e-05
  KSpace vectors: actual max1d max3d = 257 5 665
                  kxmax kymax kzmax  = 5 5 5
Generated 1 of 1 mixed pair_coeff terms from geometric mixing rule
Last active /omp style is kspace_style ewald/omp
Neighbor list info ...
  update: every = 1 steps, delay = 0 steps, check = yes
  max neighbors/atom: 2000, page size: 100000
  master list distance cutoff = 14
  ghost atom cutoff = 14
  binsize = 7, bins = 4 4 4
  1 neighbor lists, perpetual/occasional/extra = 1 0 0
  (1) pair lj/cut/coul/long/omp, perpetual
      attributes: half, newton on, omp
      pair build: half/bin/newton/omp
      stencil: half/bin/3d
      bin: standard
Per MPI rank memory allocation (min/avg/max) = 26.58 | 26.58 | 26.58 Mbytes
   Step          Temp          E_pair         E_mol          TotEng         Press     
         0   0              1.2491558      0              1.2491558      43.713899    
      1000   279.04395     -21.99489       0              18.762184     -33.846059    
      2000   330.08069     -49.381587      0             -1.1701038     -108.78563    
Loop time of 0.259661 on 8 procs for 2000 steps with 75 atoms

Performance: 665.483 ns/day, 0.036 hours/ns, 7702.355 timesteps/s, 577.677 katom-step/s
794.6% CPU use with 1 MPI tasks x 8 OpenMP threads

MPI task timing breakdown:
Section |  min time  |  avg time  |  max time  |%varavg| %total
---------------------------------------------------------------
Pair    | 0.012772   | 0.012772   | 0.012772   |   0.0 |  4.92
Bond    | 0.0098082  | 0.0098082  | 0.0098082  |   0.0 |  3.78
Kspace  | 0.16777    | 0.16777    | 0.16777    |   0.0 | 64.61
Neigh   | 0.0026147  | 0.0026147  | 0.0026147  |   0.0 |  1.01
Comm    | 0.0062847  | 0.0062847  | 0.0062847  |   0.0 |  2.42
Output  | 2.0303e-05 | 2.0303e-05 | 2.0303e-05 |   0.0 |  0.01
Modify  | 0.05941    | 0.05941    | 0.05941    |   0.0 | 22.88
Other   |            | 0.0009764  |            |       |  0.38

Nlocal:             75 ave          75 max          75 min
Histogram: 1 0 0 0 0 0 0 0 0 0
Nghost:            633 ave         633 max         633 min
Histogram: 1 0 0 0 0 0 0 0 0 0
Neighs:           2028 ave        2028 max        2028 min
Histogram: 1 0 0 0 0 0 0 0 0 0

Total # of neighbors = 2028
Ave neighs/atom = 27.04
Ave special neighs/atom = 2
Neighbor list builds = 76
Dangerous builds = 0

fix fgcmc H2O gcmc 100 ${Nattempt} 0 0 65899 300 ${mu_kcal_mol} 0.1     mol h2Omol tfac_insert ${tfac} full_energy rigid mynvt
fix fgcmc H2O gcmc 100 100 0 0 65899 300 ${mu_kcal_mol} 0.1     mol h2Omol tfac_insert ${tfac} full_energy rigid mynvt
fix fgcmc H2O gcmc 100 100 0 0 65899 300 -7.9488164 0.1     mol h2Omol tfac_insert ${tfac} full_energy rigid mynvt
fix fgcmc H2O gcmc 100 100 0 0 65899 300 -7.9488164 0.1     mol h2Omol tfac_insert 1.66666666666667 full_energy rigid mynvt

variable oxygen atom "type==1"
group oxygen dynamic all var oxygen
dynamic group oxygen defined
variable nO equal count(oxygen)
fix myat1 all ave/time 100 1 100 v_nO file number_H2O.dat
variable density equal v_nO*(15.9994+2*1.008)/vol/6.022e23*(1e8)^3
fix myat2 all ave/time 100 1 100 v_density file density_H2O.dat
compute press all pressure thermo_temp
fix myat3 all ave/time 10 100 1000 c_press file pressure_H2O.dat
thermo_style custom step temp etotal v_nO

run ${Nstep}
run 2500000
Ewald initialization ...
  using 12-bit tables for long-range coulomb (src/kspace.cpp:342)
  G vector (1/distance) = 0.22469438
  estimated absolute RMS force accuracy = 0.0038172427
  estimated relative force accuracy = 1.1495513e-05
  KSpace vectors: actual max1d max3d = 257 5 665
                  kxmax kymax kzmax  = 5 5 5
Generated 1 of 1 mixed pair_coeff terms from geometric mixing rule
Last active /omp style is kspace_style ewald/omp
0 atoms in group FixGCMC:gcmc_exclusion_group:fgcmc
0 atoms in group FixGCMC:rotation_gas_atoms:fgcmc
WARNING: Neighbor exclusions used with KSpace solver may give inconsistent Coulombic energies (src/neighbor.cpp:658)
Per MPI rank memory allocation (min/avg/max) = 26.58 | 26.58 | 26.58 Mbytes
   Step          Temp          TotEng          v_nO     
      2000   330.08069     -1.1701038      25           
      3000   329.86207     -102.6436       34           
      4000   391.92222     -480.70174      72           
      5000   394.16431     -873.58059      99           
      6000   461.19714     -1235.2798      131          
      7000   547.19888     -1627.2247      161          
      8000   404.07555     -1995.7259      184          
      9000   503.2659      -2323.3176      216          
     10000   490.53815     -2717.2837      246          
     11000   404.87409     -3110.71        268          
     12000   418.64553     -3382.6111      288          
     13000   417.62732     -3649.0181      309          
     14000   384.09589     -3931.3283      327          
     15000   371.55226     -4205.817       347          
     16000   357.70303     -4447.4322      361          
     17000   330.63326     -4680.8858      376          
     18000   417.86539     -4876.6187      391          
     19000   316.95866     -5153.6953      407          
     20000   430.64732     -5252.786       415          
     21000   324.78118     -5442.8674      425          
     22000   313.16147     -5566.9368      433          
     23000   345.82505     -5703.1904      443          
     24000   365.0294      -5795.4157      449          
     25000   402.07087     -5895.0063      456          
     26000   301.31545     -5955.73        457          
     27000   292.91856     -6045.8577      463          
     28000   285.33886     -6088.354       465          
     29000   313.75995     -6127.5763      467          
     30000   348.02272     -6192.3161      472          
     31000   325.33255     -6323.532       481          
     32000   284.54071     -6360.3763      482          
     33000   362.99666     -6380.9392      485          
     34000   335.57659     -6465.6162      489          
     35000   287.32295     -6490.7862      490          
     36000   295.71374     -6492.8104      490          
     37000   270.23924     -6532.9162      492          
     38000   340.66298     -6554.9108      495          
     39000   306.41246     -6620.2896      498          
     40000   319.01306     -6635.7584      499          
     41000   275.89087     -6680.6677      501          
     42000   370.36241     -6690.9077      503          
     43000   313.10977     -6712.2466      503          
     44000   329.52689     -6761.7768      507          
     45000   317.05841     -6786.6262      508          
     46000   277.41255     -6813.1381      509          
     47000   360.73372     -6793.878       510          
     48000   290.05769     -6833.1571      510          
     49000   367.49251     -6812.0986      510          
     50000   305.60006     -6824.4441      510          
     51000   291.04962     -6829.131       510          
     52000   287.29031     -6835.2534      510          
     53000   314.64569     -6838.2808      511          
     54000   339.6724      -6830.7722      511          
     55000   294.45176     -6868.3261      513          
     56000   282.2821      -6876.8455      513          
     57000   303.94006     -6889.6982      515          
     58000   322.89814     -6913.1701      517          
     59000   302.36372     -6918.7474      517          
     60000   320.83737     -6919.7309      517          
     61000   300.02738     -6921.2248      517          
     62000   340.93763     -6911.3455      517          
     63000   310.26304     -6916.4526      517          
     64000   296.66332     -6927.2528      517          
     65000   287.81178     -6951.8997      519          
     66000   284.25481     -6955.8575      519          
     67000   316.96183     -6943.4397      519          
     68000   350.98594     -6935.4849      519          
     69000   275.32866     -6961.8634      519          
     70000   305.97717     -6950.8499      519          
     71000   314.33153     -6967.9066      520          
     72000   302.27691     -6968.3531      520          
     73000   288.50226     -6977.8869      520          
     74000   316.63206     -6971.2745      520          
     75000   324.02129     -6967.2645      520          
     76000   325.46249     -6978.8001      521          
     77000   337.56038     -6983.2887      521          
     78000   290.45713     -7012.9362      522          
     79000   294.34478     -7013.5328      522          
     80000   276.50014     -7020.7316      522          
     81000   280.59912     -7019.03        522          
     82000   308.59107     -7012.2129      522          
     83000   289.88087     -7022.4601      522          
     84000   331.57666     -7005.0524      522          
     85000   299.72671     -7041.2373      524          
     86000   338.2694      -7055.7486      525          
     87000   261.08544     -7083.912       525          
     88000   309.42419     -7085.8575      526          
     89000   353.08663     -7073.0815      526          
     90000   295.66431     -7093.4934      526          
     91000   279.75839     -7101.1633      526          
     92000   305.37842     -7097.003       526          
     93000   344.48142     -7077.1512      526          
     94000   278.6126      -7112.2005      527          
     95000   319.4932      -7098.9567      527          
     96000   261.15096     -7120.4534      527          
     97000   327.63494     -7102.0429      527          
     98000   287.06138     -7112.0951      527          
     99000   274.95116     -7114.3633      527          
    100000   337.50622     -7118.2545      528          
    101000   279.97242     -7126.7185      528          
    102000   311.34537     -7118.535       528          
    103000   285.69057     -7125.0987      528          
    104000   320.77581     -7115.5541      528          
    105000   279.03421     -7131.7363      529          
    106000   324.86822     -7126.7405      529          
    107000   286.15197     -7141.2899      529          
    108000   306.47936     -7135.9717      529          
    109000   272.36489     -7144.0934      529          
    110000   301.6856      -7134.3654      529          
    111000   292.86828     -7139.79        529          
    112000   351.67332     -7126.3936      529          
    113000   281.52387     -7157.1917      530          
    114000   326.10396     -7146.9425      530          
    115000   310.78199     -7151.4751      530          
    116000   277.53874     -7173.4223      531          
    117000   322.04288     -7157.9111      531          
    118000   272.48391     -7180.3301      531          
    119000   314.47318     -7164.1866      531          
    120000   273.08709     -7182.7761      532          
    121000   276.14247     -7190.227       532          
    122000   347.86709     -7171.5127      532          
    123000   271.10557     -7193.4467      532          
    124000   298.4025      -7195.7956      533          
    125000   305.47144     -7196.5078      533          
    126000   306.6538      -7201.863       533          
    127000   266.28573     -7218.0104      533          
    128000   311.64582     -7206.1751      533          
    129000   263.65704     -7234.0016      534          
    130000   340.75288     -7223.5797      534          
    131000   286.62679     -7232.4503      534          
    132000   394.14226     -7208.4834      534          
    133000   312.39883     -7227.889       534          
    134000   319.79609     -7240.8684      535          
    135000   328.97941     -7243.2492      535          
    136000   269.18979     -7270.0265      536          
    137000   348.0176      -7247.3617      536          
    138000   291.5836      -7264.2006      536          
    139000   313.36505     -7259.7939      536          
    140000   354.27384     -7248.9738      536          
    141000   313.40179     -7258.9424      536          
    142000   279.1877      -7266.4167      536          
    143000   348.17796     -7247.4329      536          
    144000   334.80307     -7253.1416      536          
    145000   265.79311     -7271.8059      536          
    146000   306.30535     -7259.5509      536          
    147000   297.08061     -7267.4672      536          
    148000   275.4378      -7273.5681      536          
    149000   319.97955     -7252.6394      536          
    150000   298.17481     -7266.7396      536          
    151000   327.44531     -7261.2011      536          
    152000   288.471       -7271.1122      536          
    153000   313.69942     -7261.7781      536          
    154000   315.12757     -7263.5168      536          
    155000   281.86975     -7269.6523      536          
    156000   312.52288     -7261.4007      536          
    157000   285.76373     -7264.7481      536          
    158000   318.20896     -7257.1408      536          
    159000   276.31461     -7269.0135      536          
    160000   319.26941     -7260.8589      536          
    161000   327.35125     -7270.7495      538          
    162000   299.23866     -7287.3288      538          
    163000   286.81829     -7289.462       538          
    164000   311.32031     -7279.8398      538          
    165000   325.2774      -7280.4124      538          
    166000   312.86236     -7289.7112      538          
    167000   293.87989     -7295.4993      538          
    168000   322.38423     -7282.6834      538          
    169000   294.66702     -7295.8859      538          
    170000   278.6686      -7300.2497      538          
    171000   303.56652     -7304.8489      539          
    172000   315.75089     -7295.901       539          
    173000   308.14595     -7311.3793      540          
    174000   290.05849     -7320.2655      540          
    175000   290.30923     -7320.9869      540          
    176000   293.04504     -7317.6428      540          
    177000   294.80149     -7319.6622      540          
    178000   307.28152     -7319.9268      540          
    179000   267.45331     -7327.8059      540          
    180000   314.34061     -7317.0229      540          
    181000   290.0341      -7322.2316      540          
    182000   331.94327     -7310.5495      540          
    183000   287.24456     -7321.6239      540          
    184000   341.80359     -7315.2271      540          
    185000   274.70539     -7327.731       540          
    186000   355.93936     -7306.1868      540          
    187000   289.92548     -7327.3171      540          
    188000   267.19212     -7331.4388      540          
    189000   343.82906     -7310.8635      540          
    190000   342.73613     -7309.4663      540          
    191000   296.7716      -7326.7558      540          
    192000   307.95252     -7317.2534      540          
    193000   316.47417     -7321.3272      540          
    194000   296.07592     -7321.2628      540          
    195000   334.1764      -7312.6425      540          
    196000   284.21419     -7331.2743      540          
    197000   289.7996      -7324.7476      540          
    198000   324.03541     -7314.0533      540          
    199000   290.94253     -7326.5688      540          
    200000   290.80298     -7328.381       540          
    201000   275.94524     -7329.7852      540          
    202000   286.41465     -7326.4576      540          
    203000   285.76538     -7327.036       540          
    204000   289.83208     -7327.3076      540          
    205000   301.35501     -7322.7995      540          
    206000   272.15029     -7334.5006      540          
    207000   312.83003     -7323.9693      540          
    208000   264.23045     -7336.136       540          
    209000   302.2881      -7340.5149      541          
    210000   314.67738     -7332.853       541          
    211000   316.34373     -7335.3686      541          
    212000   321.22214     -7337.94        541          
    213000   300.66011     -7344.3578      541          
    214000   276.16634     -7351.1613      541          
    215000   326.8274      -7333.1754      541          
    216000   331.76324     -7335.7318      541          
    217000   289.07256     -7342.4152      541          
    218000   321.26413     -7335.5949      541          
    219000   303.23641     -7355.3139      542          
    220000   333.98354     -7347.4427      542          
    221000   281.6856      -7363.877       542          
    222000   341.95036     -7345.0592      542          
    223000   298.45026     -7358.774       542          
    224000   296.93028     -7354.7976      542          
    225000   294.97787     -7354.2386      542          
    226000   293.97174     -7358.285       542          
    227000   326.46684     -7352.3026      542          
    228000   315.77963     -7350.0289      542          
    229000   316.05265     -7346.7683      542          
    230000   295.84118     -7359.23        542          
    231000   310.82175     -7353.93        542          
    232000   292.552       -7371.4335      543          
    233000   322.49281     -7359.9946      543          
    234000   287.63175     -7370.6677      543          
    235000   322.7828      -7364.4999      543          
    236000   332.44174     -7358.5907      543          
    237000   319.22146     -7362.4937      543          
    238000   292.36825     -7369.3469      543          
    239000   274.84331     -7372.2694      543          
    240000   294.14583     -7370.3119      543          
    241000   310.28393     -7362.8571      543          
    242000   321.99245     -7360.2379      543          
    243000   308.33867     -7363.4537      543          
    244000   335.94025     -7358.6969      543          
    245000   315.20518     -7361.9877      543          
    246000   351.20751     -7356.5678      543          
    247000   260.00663     -7377.3802      543          
    248000   287.1732      -7370.4217      543          
    249000   291.21947     -7369.2085      543          
    250000   294.77072     -7366.3998      543          
    251000   260.19646     -7381.1315      543          
    252000   321.56425     -7357.6641      543          
    253000   250.06185     -7380.7618      543          
    254000   297.19151     -7370.4087      543          
    255000   312.62035     -7363.9694      543          
    256000   305.22241     -7360.9356      543          
    257000   319.41296     -7360.2449      543          
    258000   288.58849     -7375.2529      543          
    259000   286.93223     -7371.317       543          
    260000   327.11974     -7358.1838      543          
    261000   324.11598     -7357.4471      543          
    262000   254.92765     -7379.268       543          
    263000   356.90608     -7347.1811      543          
    264000   300.58734     -7364.0188      543          
    265000   334.60359     -7359.1697      543          
    266000   279.97498     -7375.1294      543          
    267000   307.5356      -7361.2074      543          
    268000   281.39077     -7376           543          
    269000   298.00033     -7369.2715      543          
    270000   288.58065     -7366.5187      543          
    271000   293.24984     -7368.2903      543          
    272000   357.69001     -7354.2122      543          
    273000   263.01871     -7376.2625      543          
    274000   328.3937      -7353.2857      543          
    275000   297.25885     -7380.4862      544          
    276000   337.6062      -7372.4428      544          
    277000   303.48082     -7376.935       544          
    278000   336.11796     -7364.5925      544          
    279000   285.56237     -7382.2308      544          
    280000   306.95647     -7377.4923      544          
    281000   313.53197     -7375.9362      544          
    282000   286.53224     -7381.421       544          
    283000   302.28235     -7377.5416      544          
    284000   293.93655     -7380.256       544          
    285000   315.99743     -7368.3239      544          
    286000   359.54471     -7359.5294      544          
    287000   356.57487     -7376.8167      545          
    288000   289.73117     -7394.2579      545          
    289000   312.54094     -7385.6758      545          
    290000   274.32975     -7396.804       545          
    291000   327.58023     -7381.4829      545          
    292000   343.00958     -7378.9033      545          
    293000   265.4405      -7402.4569      545          
    294000   353.12067     -7373.1031      545          
    295000   268.8699      -7400.3659      545          
    296000   310.60825     -7388.5101      545          
    297000   300.28056     -7392.3165      545          
    298000   274.3952      -7395.9783      545          
    299000   283.00335     -7396.0187      545          
    300000   256.73362     -7405.5638      545          
    301000   276.77565     -7397.1011      545          
    302000   309.57893     -7390.6081      545          
    303000   311.65785     -7387.0548      545          
    304000   306.91804     -7391.7588      545          
    305000   309.05485     -7386.6249      545          
    306000   306.37187     -7390.7267      545          
    307000   261.56671     -7403.641       545          
    308000   286.02332     -7399.6606      545          
    309000   262.34679     -7406.285       545          
    310000   277.44437     -7399.4383      545          
    311000   284.42719     -7393.799       545          
    312000   343.31126     -7382.2699      545          
    313000   283.9231      -7400.1598      545          
    314000   320.45433     -7385.4271      545          
    315000   269.99899     -7400.8457      545          
    316000   290.11715     -7398.0221      545          
    317000   364.45497     -7377.3953      545          
    318000   291.68828     -7396.7552      545          
    319000   305.77077     -7391.9889      545          
    320000   359.12828     -7377.6054      545          
    321000   258.60999     -7407.7889      545          
    322000   338.59564     -7385.5546      545          
    323000   309.42605     -7389.6075      545          
    324000   312.97305     -7387.8816      545          
    325000   300.78591     -7394.9586      545          
    326000   307.49747     -7388.3033      545          
    327000   335.32625     -7383.9543      545          
    328000   279.82432     -7398.8577      545          
    329000   267.61184     -7414.4603      546          
    330000   297.20369     -7407.3356      546          
    331000   300.59247     -7408.2183      546          
    332000   287.82563     -7407.192       546          
    333000   282.06937     -7410.8955      546          
    334000   282.61113     -7411.1189      546          
    335000   296.56066     -7407.587       546          
    336000   241.43058     -7421.7668      546          
    337000   315.61386     -7402.2236      546          
    338000   281.59484     -7408.2096      546          
    339000   294.17468     -7408.9192      546          
    340000   269.4645      -7412.3696      546          
    341000   301.55038     -7406.3295      546          
    342000   297.19068     -7415.8579      547          
    343000   315.44184     -7406.6231      547          
    344000   278.35456     -7420.5548      547          
    345000   292.84364     -7418.068       547          
    346000   297.81631     -7417.4494      547          
    347000   315.22389     -7410.8687      547          
    348000   345.84951     -7401.0366      547          
    349000   277.53282     -7420.5924      547          
    350000   273.48957     -7426.8125      547          
    351000   336.37137     -7406.0768      547          
    352000   309.27042     -7415.8673      547          
    353000   336.09221     -7410.987       547          
    354000   308.19005     -7416.5477      547          
    355000   318.40193     -7412.971       547          
    356000   295.42984     -7420.3677      547          
    357000   300.73557     -7416.6187      547          
    358000   314.4654      -7426.7241      548          
    359000   263.96962     -7440.4636      548          
    360000   357.33084     -7414.9918      548          
    361000   303.86715     -7430.9892      548          
    362000   319.52055     -7426.9397      548          
    363000   268.44491     -7441.36        548          
    364000   322.92861     -7424.4524      548          
    365000   313.91925     -7426.9276      548          
    366000   278.67242     -7438.2328      548          
    367000   296.27316     -7434.2913      548          
    368000   290.8361      -7433.9119      548          
    369000   296.73564     -7430.1403      548          
    370000   386.39528     -7417.579       549          
    371000   270.69236     -7451.0718      549          
    372000   348.06863     -7430.5082      549          
    373000   312.67422     -7438.9173      549          
    374000   289.51877     -7447.5008      549          
    375000   297.86935     -7441.3531      549          
    376000   320.46882     -7437.1223      549          
    377000   314.8019      -7438.3904      549          
    378000   334.28016     -7434.1225      549          
    379000   311.16062     -7439.2955      549          
    380000   326.88582     -7438.6974      549          
    381000   327.06338     -7433.5852      549          
    382000   321.59291     -7435.715       549          
    383000   295.93556     -7446.2744      549          
    384000   277.5449      -7450.8635      549          
    385000   304.53004     -7438.5059      549          
    386000   258.92453     -7455.534       549          
    387000   341.93019     -7428.5941      549          
    388000   268.84362     -7451.3782      549          
    389000   303.60758     -7439.649       549          
    390000   319.15662     -7438.0924      549          
    391000   277.12225     -7450.7772      549          
    392000   287.3656      -7446.8348      549          
    393000   337.07991     -7430.4671      549          
    394000   331.6092      -7435.9841      549          
    395000   314.98212     -7438.5659      549          
    396000   333.79924     -7435.0232      549          
    397000   278.57384     -7444.93        549          
    398000   347.34808     -7439.1755      550          
    399000   292.37072     -7458.444       550          
    400000   294.87727     -7458.3902      550          
    401000   262.13199     -7482.2561      551          
    402000   301.05025     -7472.8296      551          
    403000   292.7261      -7477.5234      551          
    404000   294.92556     -7473.9319      551          
    405000   337.3405      -7465.3648      551          
    406000   259.55632     -7482.8383      551          
    407000   353.2184      -7460.9031      551          
    408000   312.73643     -7477.645       551          
    409000   279.8344      -7487.5965      551          
    410000   310.78425     -7472.381       551          
    411000   314.91175     -7477.7551      551          
    412000   274.19327     -7500.5656      552          
    413000   308.93519     -7498.9813      553          
    414000   318.07161     -7492.9751      553          
    415000   316.56604     -7496.0299      553          
    416000   295.95174     -7503.5806      553          
    417000   321.37854     -7499.9628      553          
    418000   302.03593     -7499.7774      553          
    419000   345.0466      -7494.7663      554          
    420000   268.48181     -7527.7448      554          
    421000   279.98272     -7527.8722      554          
    422000   256.5992      -7536.6152      554          
    423000   322.26458     -7521.3781      554          
    424000   302.30052     -7523.4476      554          
    425000   311.74054     -7515.3343      554          
    426000   313.94026     -7522.424       554          
    427000   298.8984      -7527.578       554          
    428000   336.63083     -7512.993       554          
    429000   257.55764     -7538.0603      554          
    430000   322.62935     -7520.4753      554          
    431000   302.23557     -7524.483       554          
    432000   278.70091     -7528.9257      554          
    433000   323.36063     -7519.4942      554          
    434000   304.6302      -7521.3867      554          
    435000   304.49611     -7521.977       554          
    436000   351.43349     -7512.1123      554          
    437000   304.15609     -7523.2123      554          
    438000   337.91606     -7513.156       554          
    439000   301.01003     -7524.0569      554          
    440000   315.16929     -7524.695       554          
    441000   296.61662     -7528.9878      554          
    442000   286.96259     -7524.3348      554          
    443000   338.00494     -7510.306       554          
    444000   284.90296     -7530.9956      554          
    445000   287.01399     -7527.4926      554          
    446000   310.79073     -7525.7718      554          
    447000   309.4853      -7524.876       554          
    448000   289.51462     -7524.9872      554          
    449000   281.83333     -7532.29        554          
    450000   349.97069     -7511.0175      554          
    451000   297.39614     -7527.9758      554          
    452000   294.70111     -7525.2797      554          
    453000   329.96193     -7519.5405      554          
    454000   284.16983     -7530.8772      554          
    455000   270.70825     -7531.3209      554          
    456000   305.01567     -7524.2455      554          
    457000   337.22884     -7513.5545      554          
    458000   306.56503     -7526.5325      554          
    459000   329.28645     -7513.9408      554          
    460000   258.48145     -7538.0995      554          
    461000   320.53629     -7518.5397      554          
    462000   321.13017     -7521.3989      554          
    463000   335.72991     -7527.5202      555          
    464000   328.81881     -7529.2886      555          
    465000   325.45781     -7531.742       555          
    466000   267.40039     -7548.5276      555          
    467000   341.829       -7527.2159      555          
    468000   298.28263     -7537.2468      555          
    469000   330.75493     -7530.4416      555          
    470000   336.72957     -7528.9521      555          
    471000   290.48258     -7539.2816      555          
    472000   299.69379     -7535.9931      555          
    473000   289.17865     -7540.0165      555          
    474000   300.35979     -7537.8903      555          
    475000   310.21423     -7536.265       555          
    476000   299.54874     -7541.2187      555          
    477000   330.18146     -7527.4288      555          
    478000   334.99183     -7531.7718      555          
    479000   329.44265     -7537.9932      555          
    480000   291.40924     -7547.9203      555          
    481000   297.44526     -7541.4022      555          
    482000   315.69209     -7538.9055      555          
    483000   283.40463     -7546.9592      555          
    484000   315.38892     -7541.3483      555          
    485000   317.90307     -7537.3935      555          
    486000   273.23167     -7551.2188      555          
    487000   325.6936      -7537.9083      555          
    488000   282.95612     -7552.29        555          
    489000   329.4443      -7538.5902      555          
    490000   333.19627     -7535.5155      555          
    491000   310.5077      -7545.6413      555          
    492000   317.95132     -7547.9931      556          
    493000   286.58299     -7562.3012      556          
    494000   286.24969     -7561.5132      556          
    495000   314.58407     -7555.9431      556          
    496000   284.10868     -7560.3092      556          
    497000   279.69194     -7563.8304      556          
    498000   286.42335     -7559.3251      556          
    499000   283.07622     -7560.4766      556          
    500000   355.00903     -7558.186       557          
    501000   296.01195     -7575.475       557          
    502000   319.62284     -7571.4119      557          
    503000   276.55055     -7592.277       558          
    504000   331.99033     -7572.3346      558          
    505000   281.23603     -7593.7912      558          
    506000   283.47411     -7592.2044      558          
    507000   324.41106     -7578.1404      558          
    508000   298.09905     -7586.7151      558          
    509000   315.16627     -7583.3802      558          
    510000   294.53466     -7591.4682      558          
    511000   315.76345     -7583.0616      558          
    512000   321.38628     -7579.2016      558          
    513000   243.79228     -7600.0772      558          
    514000   343.07995     -7574.5692      558          
    515000   318.18226     -7585.2659      558          
    516000   342.60565     -7573.4598      558          
    517000   284.59614     -7588.8241      558          
    518000   299.15247     -7586.9353      558          
    519000   244.19183     -7603.4059      558          
    520000   318.22349     -7580.1843      558          
    521000   248.17981     -7595.2052      558          
    522000   321.91582     -7591.4648      559          
    523000   283.41572     -7608.8754      559          
    524000   307.89043     -7601.8836      559          
    525000   333.59921     -7590.7583      559          
    526000   301.41136     -7600.5975      559          
    527000   322.92626     -7597.7818      559          
    528000   253.85691     -7614.177       559          
    529000   320.75187     -7593.6397      559          
    530000   338.23143     -7602.4188      560          
    531000   295.64669     -7609.9029      560          
    532000   297.40902     -7613.6339      560          
    533000   275.07933     -7619.8815      560          
    534000   305.16436     -7605.0855      560          
    535000   324.02593     -7606.1587      560          
    536000   341.6246      -7599.7718      560          
    537000   294.25047     -7610.9505      560          
    538000   299.60486     -7609.3005      560          
    539000   306.60681     -7610.722       560          
    540000   330.53449     -7596.6931      560          
    541000   338.01139     -7593.8299      560          
    542000   288.44267     -7614.4896      560          
    543000   330.03182     -7602.3034      560          
    544000   276.10332     -7617.393       560          
    545000   305.78876     -7606.5142      560          
    546000   340.98442     -7593.9836      560          
    547000   288.39992     -7616.4304      560          
    548000   326.47299     -7601.8577      560          
    549000   291.69526     -7610.757       560          
    550000   330.63852     -7616.1362      561          
    551000   281.59492     -7629.0956      561          
    552000   340.95737     -7609.275       561          
    553000   304.62868     -7621.8045      561          
    554000   282.95059     -7628.59        561          
    555000   304.12121     -7623.2454      561          
    556000   271.84204     -7633.8475      561          
    557000   312.23731     -7615.314       561          
    558000   305.01263     -7620.1585      561          
    559000   284.38069     -7624.0629      561          
    560000   276.37283     -7626.6056      561          
    561000   300.39004     -7621.0405      561          
    562000   310.94784     -7619.964       561          
    563000   298.02452     -7620.5873      561          
    564000   304.83721     -7620.7517      561          
    565000   278.31769     -7631.4115      561          
    566000   302.1404      -7623.2926      561          
    567000   297.95368     -7616.3155      561          
    568000   269.51161     -7629.6523      561          
    569000   324.90113     -7617.2018      561          
    570000   307.77803     -7622.5109      561          
    571000   288.56079     -7624.9907      561          
    572000   340.74416     -7608.7506      561          
    573000   290.75125     -7628.1428      561          
    574000   333.84451     -7613.8398      561          
    575000   337.02206     -7612.7253      561          
    576000   311.54115     -7624.0792      561          
    577000   314.98767     -7617.1432      561          
    578000   320.26478     -7617.503       561          
    579000   315.66245     -7617.4797      561          
    580000   307.06916     -7621.0298      561          
    581000   313.28595     -7620.2222      561          
    582000   255.37749     -7634.4654      561          
    583000   342.72625     -7609.3915      561          
    584000   279.32314     -7631.6471      561          
    585000   349.07485     -7608.3915      561          
    586000   326.88989     -7613.9085      561          
    587000   305.92061     -7622.4589      561          
    588000   346.57947     -7612.2973      561          
    589000   283.5721      -7623.9646      561          
    590000   346.79932     -7609.6893      561          
    591000   349.67891     -7606.0213      561          
    592000   311.67044     -7620.8347      561          
    593000   324.67606     -7618.3131      561          
    594000   357.94364     -7608.1126      561          
    595000   294.30265     -7625.2884      561          
    596000   368.6539      -7605.6626      561          
    597000   291.3041      -7626.9072      561          
    598000   330.53938     -7610.7419      561          
    599000   284.20324     -7628.5207      561          
    600000   291.69247     -7624.2418      561          
    601000   311.11195     -7615.3639      561          
    602000   335.1048      -7613.502       561          
    603000   331.05205     -7617.499       561          
    604000   309.25752     -7622.9545      561          
    605000   311.57527     -7618.3941      561          
    606000   317.08401     -7615.1708      561          
    607000   279.37883     -7629.7085      561          
    608000   320.51446     -7614.1083      561          
    609000   329.8701      -7616.2833      561          
    610000   296.63641     -7626.4491      561          
    611000   296.79789     -7619.9885      561          
    612000   314.96009     -7617.5204      561          
    613000   301.67672     -7625.7038      561          
    614000   310.47474     -7619.715       561          
    615000   312.27484     -7618.4515      561          
    616000   316.37739     -7615.0012      561          
    617000   311.45843     -7621.7159      561          
    618000   317.41237     -7621.945       561          
    619000   281.12778     -7627.9854      561          
    620000   321.49162     -7616.8176      561          
    621000   320.92572     -7620.1437      561          
    622000   288.34793     -7635.389       562          
    623000   385.35867     -7610.0028      562          
    624000   320.24527     -7631.9162      562          
    625000   348.62825     -7625.1164      562          
    626000   323.63326     -7633.8268      562          
    627000   272.96826     -7643.2756      562          
    628000   301.55693     -7643.1373      563          
    629000   311.19861     -7645.549       563          
    630000   318.08357     -7645.3598      563          
    631000   318.10562     -7644.5957      563          
    632000   259.20673     -7674.1406      564          
    633000   293.44637     -7666.8815      564          
    634000   280.06554     -7665.3205      564          
    635000   307.30879     -7662.9197      564          
    636000   293.74209     -7666.0644      564          
    637000   295.48681     -7667.1007      564          
    638000   283.82526     -7667.1676      564          
    639000   323.96932     -7659.3718      564          
    640000   288.41087     -7667.6991      564          
    641000   302.04484     -7661.891       564          
    642000   322.44469     -7657.8879      564          
    643000   344.61087     -7651.0596      564          
    644000   311.37081     -7670.5877      565          
    645000   304.80721     -7672.4022      565          
    646000   314.13184     -7676.8156      565          
    647000   333.14298     -7666.565       565          
    648000   307.39551     -7673.1763      565          
    649000   293.69354     -7679.0215      565          
    650000   354.41652     -7663.7892      565          
    651000   257.75773     -7689.833       565          
    652000   336.82708     -7665.2314      565          
    653000   269.85973     -7687.4522      565          
    654000   308.65826     -7673.347       565          
    655000   286.84705     -7680.1472      565          
    656000   284.08734     -7681.1367      565          
    657000   305.25237     -7676.6608      565          
    658000   282.6535      -7682.47        565          
    659000   309.38182     -7678.1549      565          
    660000   314.99947     -7680.1427      565          
    661000   328.63587     -7672.2233      565          
    662000   277.44127     -7690.5126      565          
    663000   317.25785     -7672.1055      565          
    664000   308.05801     -7679.5389      565          
    665000   295.55992     -7685.5902      565          
    666000   317.86786     -7673.2994      565          
    667000   300.59879     -7683.2195      565          
    668000   306.00726     -7683.5051      565          
    669000   320.60912     -7673.0266      565          
    670000   316.90924     -7673.5738      565          
    671000   335.07031     -7675.0356      565          
    672000   267.26943     -7693.0591      565          
    673000   319.38663     -7668.8148      565          
    674000   286.95631     -7686.1657      565          
    675000   304.09968     -7680.4555      565          
    676000   350.08573     -7669.7785      565          
    677000   295.40322     -7684.2932      565          
    678000   307.52358     -7671.2473      565          
    679000   281.05237     -7688.929       565          
    680000   326.62839     -7671.626       565          
    681000   262.12129     -7695.0347      565          
    682000   329.74174     -7675.0051      565          
    683000   314.82652     -7679.0253      565          
    684000   321.14051     -7675.7965      565          
    685000   354.13885     -7662.7456      565          
    686000   309.74792     -7679.236       565          
    687000   339.30114     -7673.9852      565          
    688000   323.75028     -7674.8942      565          
    689000   271.90094     -7689.342       565          
    690000   273.05465     -7690.3746      565          
    691000   290.99364     -7683.5425      565          
    692000   315.8597      -7677.1542      565          
    693000   292.27626     -7686.7627      565          
    694000   291.31856     -7685.3174      565          
    695000   272.0633      -7691.0322      565          
    696000   300.17202     -7683.2472      565          
    697000   286.96021     -7682.8414      565          
    698000   299.73258     -7682.3338      565          
    699000   283.8987      -7683.0729      565          
    700000   307.98137     -7677.6765      565          
    701000   311.75992     -7679.2187      565          
    702000   296.53054     -7678.9578      565          
    703000   301.6344      -7680.7881      565          
    704000   300.12859     -7680.7019      565          
    705000   295.74253     -7683.9536      565          
    706000   359.60181     -7661.4598      565          
    707000   294.17906     -7681.7883      565          
    708000   304.29273     -7679.052       565          
    709000   296.19687     -7684.3168      565          
    710000   291.0359      -7682.8828      565          
    711000   328.96763     -7674.451       565          
    712000   258.62144     -7695.6054      565          
    713000   261.63389     -7692.3487      565          
    714000   275.58181     -7693.1248      565          
    715000   285.57984     -7680.5526      565          
    716000   296.6683      -7681.0402      565          
    717000   297.18943     -7685.6356      565          
    718000   349.4065      -7673.9695      565          
    719000   327.45361     -7672.9868      565          
    720000   348.043       -7666.462       565          
    721000   288.66581     -7686.9174      565          
    722000   355.07635     -7664.1609      565          
    723000   289.38965     -7686.0511      565          
    724000   292.09286     -7681.4103      565          
    725000   305.00209     -7675.6437      565          
    726000   288.44409     -7689.8521      565          
    727000   308.68812     -7681.5859      565          
    728000   260.02279     -7694.6675      565          
    729000   306.70834     -7679.2601      565          
    730000   308.85699     -7679.4041      565          
    731000   307.76008     -7680.6674      565          
    732000   340.68627     -7672.8766      565          
    733000   315.21696     -7676.8891      565          
    734000   297.02221     -7683.8437      565          
    735000   323.3737      -7678.1848      565          
    736000   285.45228     -7686.2074      565          
    737000   314.19735     -7679.1399      565          
    738000   332.97572     -7669.2091      565          
    739000   275.77935     -7690.8642      565          
    740000   286.13268     -7689.1995      565          
    741000   307.93654     -7676.1175      565          
    742000   292.77349     -7682.0179      565          
    743000   334.30351     -7673.0146      565          
    744000   307.42004     -7682.462       565          
    745000   268.5158      -7689.8162      565          
    746000   336.80915     -7671.3272      565          
    747000   299.46543     -7680.8504      565          
    748000   289.68497     -7685.6258      565          
    749000   292.7289      -7686.024       565          
    750000   300.96403     -7684.7358      565          
    751000   305.92738     -7677.7681      565          
    752000   324.23782     -7676.1797      565          
    753000   243.93593     -7699.4105      565          
    754000   310.77552     -7676.8745      565          
    755000   294.61538     -7684.8068      565          
    756000   342.16756     -7669.3609      565          
    757000   312.59787     -7683.6869      565          
    758000   314.54942     -7679.6296      565          
    759000   291.74272     -7685.7915      565          
    760000   299.31485     -7682.4464      565          
    761000   311.4908      -7680.5329      565          
    762000   304.12001     -7681.4129      565          
    763000   285.03142     -7686.2206      565          
    764000   281.72261     -7687.3824      565          
    765000   294.64841     -7682.1077      565          
    766000   333.79452     -7670.483       565          
    767000   296.75721     -7699.1836      566          
    768000   335.86315     -7690.8484      566          
    769000   296.57273     -7701.1668      566          
    770000   290.68079     -7703.4814      566          
    771000   295.47974     -7702.7205      566          
    772000   300.47675     -7698.0742      566          
    773000   284.16158     -7703.5346      566          
    774000   350.43076     -7685.807       566          
    775000   299.25404     -7704.1782      566          
    776000   343.50087     -7687.0316      566          
    777000   304.33045     -7701.647       566          
    778000   302.11902     -7701.9138      566          
    779000   306.29359     -7698.0358      566          
    780000   288.75965     -7702.9643      566          
    781000   344.22439     -7687.0165      566          
    782000   325.65894     -7693.4993      566          
    783000   306.9995      -7698.5291      566          
    784000   295.22377     -7703.8407      566          
    785000   365.64358     -7680.3819      566          
    786000   266.4584      -7709.8691      566          
    787000   303.00115     -7702.2192      566          
    788000   300.01771     -7694.5189      566          
    789000   315.61273     -7695.8373      566          
    790000   302.37752     -7700.7323      566          
    791000   315.82782     -7692.4974      566          
    792000   311.28652     -7700.2257      566          
    793000   330.54235     -7693.4506      566          
    794000   313.03227     -7693.7204      566          
    795000   295.81398     -7702.4821      566          
    796000   315.78803     -7697.9847      566          
    797000   320.70181     -7696.2587      566          
    798000   299.82994     -7700.605       566          
    799000   303.27489     -7697.2817      566          
    800000   329.28151     -7692.0382      566          
    801000   335.46344     -7688.8763      566          
    802000   292.2094      -7704.3685      566          
    803000   317.30185     -7693.8717      566          
    804000   305.16656     -7702.3365      566          
    805000   306.06008     -7703.3006      566          
    806000   337.06919     -7685.7077      566          
    807000   340.34835     -7689.5912      566          
    808000   327.55792     -7710.5476      567          
    809000   294.75428     -7716.0006      567          
    810000   309.77762     -7712.4478      567          
    811000   263.91882     -7726.5882      567          
    812000   311.87611     -7712.9403      567          
    813000   330.04337     -7704.3468      567          
    814000   325.00535     -7710.739       567          
    815000   306.52971     -7712.9453      567          
    816000   326.32187     -7708.0385      567          
    817000   283.52531     -7721.0825      567          
    818000   353.20049     -7700.834       567          
    819000   256.51717     -7726.8142      567          
    820000   323.13452     -7710.1415      567          
    821000   282.88138     -7720.3931      567          
    822000   320.47302     -7710.6123      567          
    823000   284.20985     -7721.0188      567          
    824000   347.10418     -7705.3806      567          
    825000   278.50846     -7724.3287      567          
    826000   358.93025     -7697.1019      567          
    827000   294.91983     -7719.6979      567          
    828000   332.67255     -7702.8874      567          
    829000   306.85942     -7713.1899      567          
    830000   310.74643     -7712.3347      567          
    831000   299.25202     -7715.2433      567          
    832000   315.20688     -7713.5772      567          
    833000   298.9049      -7716.5258      567          
    834000   323.48148     -7711.1038      567          
    835000   289.72696     -7717.1846      567          
    836000   305.92737     -7715.2172      567          
    837000   266.21681     -7729.7506      567          
    838000   294.76863     -7712.1661      567          
    839000   337.4674      -7699.2384      567          
    840000   268.38964     -7726.6222      567          
    841000   340.51051     -7702.9554      567          
    842000   337.98224     -7708.6317      567          
    843000   298.61032     -7719.0935      567          
    844000   343.89719     -7705.9319      567          
    845000   328.13255     -7711.9099      567          
    846000   294.92252     -7717.2456      567          
    847000   288.85049     -7716.0177      567          
    848000   292.24634     -7717.3948      567          
    849000   298.64284     -7716.841       567          
    850000   320.62929     -7712.438       567          
    851000   287.80154     -7718.4045      567          
    852000   284.11037     -7722.4178      567          
    853000   276.15465     -7725.1817      567          
    854000   292.85593     -7716.297       567          
    855000   347.35307     -7704.535       567          
    856000   321.98995     -7708.1048      567          
    857000   337.88362     -7709.0922      567          
    858000   255.04974     -7732.2547      567          
    859000   329.40316     -7708.9784      567          
    860000   245.17939     -7732.2611      567          
    861000   323.17479     -7709.0198      567          
    862000   267.83918     -7723.6541      567          
    863000   298.03794     -7717.899       567          
    864000   339.86394     -7707.7125      567          
    865000   298.32552     -7714.6833      567          
    866000   311.27381     -7712.8042      567          
    867000   274.67993     -7721.6829      567          
    868000   309.50892     -7712.4679      567          
    869000   292.28545     -7715.7457      567          
    870000   332.29139     -7705.5882      567          
    871000   323.19621     -7709.3499      567          
    872000   341.30475     -7705.5558      567          
    873000   303.14267     -7717.2242      567          
    874000   325.37925     -7709.9769      567          
    875000   284.88145     -7722.482       567          
    876000   298.60383     -7710.4268      567          
    877000   283.42683     -7720.7856      567          
    878000   296.06267     -7715.9829      567          
    879000   314.06964     -7716.3254      567          
    880000   294.53741     -7719.2461      567          
    881000   271.3443      -7727.7921      567          
    882000   307.92776     -7710.6451      567          
    883000   280.10293     -7721.0156      567          
    884000   305.72288     -7715.0648      567          
    885000   270.91875     -7724.1015      567          
    886000   315.69201     -7711.7785      567          
    887000   338.6556      -7703.6846      567          
    888000   283.82996     -7721.2673      567          
    889000   339.90459     -7706.4739      567          
    890000   287.88928     -7719.0025      567          
    891000   310.44392     -7713.0724      567          
    892000   287.60002     -7721.1332      567          
    893000   307.6108      -7711.2278      567          
    894000   326.91042     -7706.0634      567          
    895000   315.87286     -7711.8342      567          
    896000   276.19738     -7721.9012      567          
    897000   356.22722     -7702.2374      567          
    898000   288.27418     -7718.4756      567          
    899000   268.1572      -7725.8365      567          
    900000   357.73141     -7701.7326      567          
    901000   278.55677     -7718.2778      567          
    902000   301.34868     -7712.7995      567          
    903000   300.91391     -7715.9759      567          
    904000   287.39951     -7720.0009      567          
    905000   254.86671     -7731.6275      567          
    906000   313.26237     -7712.6712      567          
    907000   327.66079     -7706.5592      567          
    908000   315.61918     -7712.9396      567          
    909000   302.38627     -7717.1016      567          
    910000   313.84483     -7708.2961      567          
    911000   327.55041     -7709.2425      567          
    912000   284.97196     -7723.0847      567          
    913000   333.33672     -7710.2772      567          
    914000   269.52124     -7725.3747      567          
    915000   321.8256      -7709.3548      567          
    916000   270.25579     -7725.273       567          
    917000   344.64522     -7705.0272      567          
    918000   292.15742     -7718.0297      567          
    919000   331.76462     -7706.6405      567          
    920000   308.65332     -7713.9068      567          
    921000   276.63089     -7725.5208      567          
    922000   311.2722      -7714.2785      567          
    923000   323.40804     -7712.0335      567          
    924000   359.69387     -7699.1217      567          
    925000   308.65502     -7714.5421      567          
    926000   360.68373     -7698.003       567          
    927000   284.46664     -7720.5203      567          
    928000   293.59775     -7719.846       567          
    929000   278.39879     -7720.357       567          
    930000   279.26438     -7721.7387      567          
    931000   271.72216     -7727.9417      567          
    932000   305.66796     -7717.108       567          
    933000   321.83656     -7705.6642      567          
    934000   290.97964     -7717.1597      567          
    935000   311.91095     -7715.0663      567          
    936000   314.6289      -7714.8123      567          
    937000   283.75168     -7722.2065      567          
    938000   315.77226     -7707.8077      567          
    939000   319.79783     -7715.7609      567          
    940000   348.07365     -7700.1445      567          
    941000   323.84636     -7710.5221      567          
    942000   291.93995     -7720.192       567          
    943000   290.10749     -7719.3801      567          
    944000   287.64003     -7720.3174      567          
    945000   336.04182     -7703.7152      567          
    946000   325.50576     -7712.8838      567          
    947000   292.53413     -7721.7094      567          
    948000   378.95257     -7699.0816      567          
    949000   279.8465      -7722.0346      567          
    950000   306.49078     -7715.2332      567          
    951000   312.74529     -7716.1676      567          
    952000   292.92213     -7711.1496      567          
    953000   313.88299     -7712.7247      567          
    954000   300.89511     -7717.6099      567          
    955000   299.19523     -7720.3105      567          
    956000   311.09186     -7712.9517      567          
    957000   290.35042     -7716.7004      567          
    958000   281.86061     -7719.1343      567          
    959000   280.95265     -7719.3848      567          
    960000   286.508       -7722.7725      567          
    961000   301.35202     -7708.7735      567          
    962000   306.09501     -7716.237       567          
    963000   311.90387     -7713.8792      567          
    964000   305.21453     -7717.7437      567          
    965000   298.26899     -7717.178       567          
    966000   364.32116     -7692.3271      567          
    967000   269.32644     -7723.7509      567          
    968000   316.21838     -7713.3663      567          
    969000   337.32384     -7704.239       567          
    970000   292.29654     -7721.8996      567          
    971000   361.77079     -7697.4528      567          
    972000   297.42007     -7718.0197      567          
    973000   296.42466     -7717.3684      567          
    974000   285.92161     -7718.5237      567          
    975000   343.10863     -7705.3025      567          
    976000   281.34559     -7719.3052      567          
    977000   329.03963     -7708.8568      567          
    978000   268.70809     -7724.1796      567          
    979000   291.22888     -7721.1897      567          
    980000   341.24551     -7699.7332      567          
    981000   297.97104     -7716.9938      567          
    982000   290.98831     -7730.1877      568          
    983000   271.59565     -7732.8074      568          
    984000   332.96175     -7713.2354      568          
    985000   287.75555     -7730.5121      568          
    986000   295.26777     -7725.8667      568          
    987000   335.53723     -7711.7572      568          
    988000   256.9934      -7733.8344      568          
    989000   258.44383     -7736.5059      568          
    990000   311.2644      -7718.5911      568          
    991000   315.48469     -7720.2085      568          
    992000   321.07694     -7717.4539      568          
    993000   291.37128     -7726.0091      568          
    994000   324.38606     -7718.4307      568          
    995000   339.23155     -7711.6837      568          
    996000   292.8901      -7729.9881      568          
    997000   289.93564     -7731.3076      568          
    998000   361.27603     -7713.5197      568          
    999000   301.77289     -7725.7069      568          
   1000000   290.15888     -7737.2378      568          
   1001000   320.50776     -7725.6743      568          
   1002000   306.18772     -7728.4153      568          
   1003000   333.3679      -7726.3102      568          
   1004000   317.39621     -7728.5967      568          
   1005000   308.86457     -7735.9182      568          
   1006000   329.30389     -7726.3147      568          
   1007000   297.57386     -7738.2299      568          
   1008000   316.8784      -7731.204       568          
   1009000   308.73874     -7736.8505      568          
   1010000   322.71196     -7729.7066      568          
   1011000   316.48713     -7730.2364      568          
   1012000   315.38214     -7733.5924      568          
   1013000   318.65403     -7731.8045      568          
   1014000   284.61053     -7739.9098      568          
   1015000   302.44029     -7735.2678      568          
   1016000   310.56543     -7734.0596      568          
   1017000   360.7197      -7717.4399      568          
   1018000   296.52984     -7735.2897      568          
   1019000   347.86888     -7726.5459      568          
   1020000   316.39667     -7730.7203      568          
   1021000   259.09068     -7748.7982      568          
   1022000   286.24514     -7736.8025      568          
   1023000   323.19245     -7729.1168      568          
   1024000   258.14551     -7748.0747      568          
   1025000   333.78642     -7725.242       568          
   1026000   269.02539     -7747.0482      568          
   1027000   328.89632     -7726.0949      568          
   1028000   335.97158     -7729.2618      568          
   1029000   325.16613     -7733.55        568          
   1030000   336.96022     -7730.8283      568          
   1031000   293.99806     -7738.0272      568          
   1032000   315.69323     -7737.9531      568          
   1033000   296.61533     -7744.4751      568          
   1034000   334.71331     -7729.0932      568          
   1035000   315.59547     -7733.9639      568          
   1036000   294.74177     -7741.5257      568          
   1037000   288.75578     -7745.7412      568          
   1038000   325.31983     -7735.4845      568          
   1039000   303.35289     -7740.4651      568          
   1040000   303.90542     -7740.4576      568          
   1041000   291.84907     -7740.9379      568          
   1042000   283.35013     -7750.3314      569          
   1043000   275.44076     -7760.9462      569          
   1044000   289.98425     -7755.0394      569          
   1045000   311.97083     -7751.9671      569          
   1046000   314.54486     -7750.6932      569          
   1047000   298.32762     -7753.5562      569          
   1048000   298.96921     -7751.704       569          
   1049000   310.24947     -7751.4703      569          
   1050000   378.99104     -7734.2088      569          
   1051000   317.64984     -7752.0009      569          
   1052000   313.24182     -7752.8734      569          
   1053000   267.24523     -7763.6623      569          
   1054000   307.90185     -7748.0423      569          
   1055000   311.21737     -7746.4108      569          
   1056000   300.88461     -7755.5406      569          
   1057000   317.06626     -7748.9982      569          
   1058000   287.74885     -7755.8725      569          
   1059000   306.99845     -7751.0742      569          
   1060000   309.23299     -7752.4026      569          
   1061000   339.91661     -7739.0076      569          
   1062000   288.8458      -7759.2204      569          
   1063000   304.13133     -7744.8582      569          
   1064000   267.58097     -7764.2986      569          
   1065000   306.85718     -7752.248       569          
   1066000   298.04122     -7751.8204      569          
   1067000   289.33941     -7754.2577      569          
   1068000   365.47629     -7735.7478      569          
   1069000   275.90322     -7756.2281      569          
   1070000   308.54863     -7749.2108      569          
   1071000   285.04093     -7754.7583      569          
   1072000   315.87776     -7749.027       569          
   1073000   306.07792     -7751.1888      569          
   1074000   264.75965     -7762.7339      569          
   1075000   314.63909     -7748.7983      569          
   1076000   283.65569     -7759.4918      569          
   1077000   300.14056     -7755.8501      569          
   1078000   341.11735     -7738.1384      569          
   1079000   293.70808     -7756.6315      569          
   1080000   322.72509     -7756.2973      570          
   1081000   277.41102     -7769.9294      570          
   1082000   294.53989     -7764.9206      570          
   1083000   356.2193      -7747.9786      570          
   1084000   338.3062      -7757.7157      570          
   1085000   318.92182     -7758.8315      570          
   1086000   343.64831     -7753.4656      570          
   1087000   321.88814     -7757.1182      570          
   1088000   322.61058     -7761.9067      570          
   1089000   269.71894     -7770.7371      570          
   1090000   333.75848     -7753.8545      570          
   1091000   245.89863     -7778.1826      570          
   1092000   326.52722     -7755.8653      570          
   1093000   313.31405     -7756.3685      570          
   1094000   283.77415     -7770.2443      570          
   1095000   339.72297     -7752.1099      570          
   1096000   271.8026      -7772.1332      570          
   1097000   296.67445     -7768.6328      570          
   1098000   350.35911     -7748.7124      570          
   1099000   258.24494     -7776.0871      570          
   1100000   296.76494     -7765.8276      570          
   1101000   310.37989     -7760.9609      570          
   1102000   329.29626     -7758.2042      570          
   1103000   305.39416     -7763.0228      570          
   1104000   308.14493     -7762.0171      570          
   1105000   306.14645     -7760.6241      570          
   1106000   338.29446     -7755.3005      570          
   1107000   328.01328     -7750.8755      570          
   1108000   314.78237     -7760.213       570          
   1109000   305.8021      -7764.9726      570          
   1110000   289.38899     -7766.8224      570          
   1111000   321.78163     -7754.9487      570          
   1112000   283.29438     -7765.1129      570          
   1113000   327.33602     -7759.7174      570          
   1114000   316.26656     -7758.5058      570          
   1115000   314.91069     -7761.1494      570          
   1116000   309.87291     -7764.3997      570          
   1117000   299.07902     -7764.5298      570          
   1118000   292.85189     -7766.3591      570          
   1119000   304.46672     -7758.1509      570          
   1120000   317.64691     -7764.3077      570          
   1121000   321.87818     -7762.4115      570          
   1122000   311.40595     -7759.1682      570          
   1123000   341.22361     -7752.6107      570          
   1124000   293.89679     -7766.2904      570          
   1125000   377.84056     -7746.8077      570          
   1126000   295.67493     -7765.8564      570          
   1127000   324.96211     -7753.1717      570          
   1128000   296.77783     -7768.0538      570          
   1129000   294.44161     -7770.0378      570          
   1130000   294.70718     -7764.4684      570          
   1131000   299.39235     -7764.9172      570          
   1132000   286.7359      -7772.1295      570          
   1133000   282.89939     -7773.5237      570          
   1134000   262.40108     -7777.6534      570          
   1135000   316.76649     -7759.6225      570          
   1136000   297.01696     -7765.4404      570          
   1137000   310.03082     -7763.011       570          
   1138000   252.56933     -7779.0995      570          
   1139000   325.80714     -7756.8611      570          
   1140000   271.39813     -7772.3724      570          
   1141000   310.97706     -7758.5981      570          
   1142000   260.04805     -7776.085       570          
   1143000   313.93567     -7762.2259      570          
   1144000   284.91706     -7768.9736      570          
   1145000   300.24263     -7765.7303      570          
   1146000   349.76937     -7750.3064      570          
   1147000   295.35054     -7774.7983      571          
   1148000   322.14021     -7772.943       571          
   1149000   271.02647     -7786.222       571          
   1150000   301.70573     -7778.9651      571          
   1151000   304.91264     -7777.9657      571          
   1152000   279.21022     -7781.5884      571          
   1153000   331.73392     -7767.7008      571          
   1154000   304.08712     -7775.6449      571          
   1155000   318.53969     -7774.7026      571          
   1156000   354.90337     -7763.7728      571          
   1157000   319.09202     -7775.8819      571          
   1158000   290.47157     -7779.04        571          
   1159000   344.7259      -7765.2426      571          
   1160000   245.49582     -7795.9512      571          
   1161000   350.25132     -7759.9877      571          
   1162000   324.43879     -7771.024       571          
   1163000   298.95181     -7784.2501      571          
   1164000   238.31955     -7800.3694      571          
   1165000   319.1257      -7771.3927      571          
   1166000   292.91316     -7782.3034      571          
   1167000   298.34708     -7778.8656      571          
   1168000   311.82352     -7773.4626      571          
   1169000   281.62353     -7785.5697      571          
   1170000   311.40141     -7774.6097      571          
   1171000   354.66127     -7765.4911      571          
   1172000   297.79395     -7778.4345      571          
   1173000   296.00816     -7780.4087      571          
   1174000   316.62116     -7769.2298      571          
   1175000   320.65482     -7777.2291      571          
   1176000   328.38238     -7772.1348      571          
   1177000   330.14983     -7772.5561      571          
   1178000   303.60561     -7775.5631      571          
   1179000   262.77527     -7792.9086      571          
   1180000   322.20098     -7776.945       571          
   1181000   291.69112     -7780.9384      571          
   1182000   324.33308     -7768.8158      571          
   1183000   291.59073     -7783.2361      571          
   1184000   286.59542     -7780.5218      571          
   1185000   325.86477     -7771.5451      571          
   1186000   258.21349     -7792.5349      571          
   1187000   341.37146     -7764.8947      571          
   1188000   309.17782     -7778.2358      571          
   1189000   274.34233     -7788.0824      571          
   1190000   331.75149     -7769.9235      571          
   1191000   284.07455     -7784.3555      571          
   1192000   261.98344     -7788.1204      571          
   1193000   299.00138     -7781.5881      571          
   1194000   311.39106     -7777.0529      571          
   1195000   320.99575     -7770.1916      571          
   1196000   310.94701     -7776.3695      571          
   1197000   264.60144     -7785.8542      571          
   1198000   334.35873     -7768.3756      571          
   1199000   265.88811     -7788.2263      571          
   1200000   314.51041     -7773.1991      571          
   1201000   281.50839     -7782.8595      571          
   1202000   352.84345     -7766.037       571          
   1203000   275.54929     -7786.432       571          
   1204000   334.04686     -7770.7459      571          
   1205000   295.16682     -7778.2742      571          
   1206000   297.19901     -7775.9912      571          
   1207000   292.44057     -7779.3964      571          
   1208000   303.88197     -7780.7177      571          
   1209000   291.75294     -7781.4603      571          
   1210000   295.09067     -7776.6418      571          
   1211000   361.22536     -7761.3923      571          
   1212000   278.32544     -7788.1626      571          
   1213000   337.92683     -7774.5481      571          
   1214000   338.06684     -7771.9431      571          
   1215000   286.29847     -7783.9794      571          
   1216000   328.35997     -7775.0908      571          
   1217000   287.19583     -7788.7431      571          
   1218000   313.06338     -7781.6322      571          
   1219000   308.71088     -7780.1451      571          
   1220000   327.17365     -7771.5589      571          
   1221000   295.64062     -7788.156       571          
   1222000   324.98734     -7772.4355      571          
   1223000   335.54962     -7776.3447      571          
   1224000   272.28915     -7791.3418      571          
   1225000   329.17167     -7775.777       571          
   1226000   288.55635     -7786.1515      571          
   1227000   311.14721     -7778.8815      571          
   1228000   309.45867     -7785.3402      571          
   1229000   310.18748     -7783.2558      571          
   1230000   300.78382     -7782.4588      571          
   1231000   328.75664     -7771.3282      571          
   1232000   309.73592     -7778.1213      571          
   1233000   270.10489     -7791.2505      571          
   1234000   302.58827     -7785.4895      571          
   1235000   325.41685     -7773.5576      571          
   1236000   367.05732     -7760.72        571          
   1237000   281.59852     -7788.8402      571          
   1238000   273.57098     -7795.5046      571          
   1239000   323.70674     -7774.0528      571          
   1240000   293.13795     -7784.2499      571          
   1241000   336.92663     -7770.3831      571          
   1242000   293.31735     -7785.2024      571          
   1243000   262.36906     -7795.9358      571          
   1244000   318.36201     -7778.7993      571          
   1245000   290.90093     -7783.8312      571          
   1246000   341.19704     -7773.7021      571          
   1247000   300.00663     -7784.8816      571          
   1248000   308.46838     -7784.4998      571          
   1249000   298.5803      -7783.6508      571          
   1250000   301.1177      -7784.7828      571          
   1251000   332.78178     -7775.3682      571          
   1252000   306.60236     -7784.0342      571          
   1253000   371.38046     -7765.3903      571          
   1254000   285.29096     -7787.739       571          
   1255000   310.14035     -7784.4455      571          
   1256000   312.38387     -7776.4471      571          
   1257000   299.65137     -7779.2166      571          
   1258000   307.89458     -7784.1065      571          
   1259000   292.51367     -7786.7037      571          
   1260000   351.24763     -7765.835       571          
   1261000   320.62032     -7777.8929      571          
   1262000   327.76414     -7775.067       571          
   1263000   321.31195     -7780.1098      571          
   1264000   292.4523      -7782.8365      571          
   1265000   329.58988     -7776.8722      571          
   1266000   284.69609     -7791.2838      571          
   1267000   298.92386     -7785.2349      571          
   1268000   324.61627     -7772.6181      571          
   1269000   273.5872      -7791.3079      571          
   1270000   273.84313     -7790.2042      571          
[...]
   2175000   329.97397     -7846.2133      575          
   2176000   298.96776     -7849.9425      575          
   2177000   302.3414      -7853.2741      575          
   2178000   301.5022      -7852.8834      575          
   2179000   323.59259     -7847.3824      575          
   2180000   326.18242     -7846.4393      575          
   2181000   301.00679     -7853.4326      575          
   2182000   313.56462     -7850.8589      575          
   2183000   326.10553     -7849.1915      575          
   2184000   293.79508     -7854.465       575          
   2185000   297.12634     -7853.944       575          
   2186000   322.77298     -7845.8419      575          
   2187000   294.47054     -7854.43        575          
   2188000   324.3782      -7848.0559      575          
   2189000   322.01584     -7847.2951      575          
   2190000   305.4217      -7852.4818      575          
   2191000   350.63348     -7839.1369      575          
   2192000   275.36935     -7862.6452      575          
   2193000   291.67769     -7857.9612      575          
   2194000   315.2099      -7852.4381      575          
   2195000   302.1813      -7849.8297      575          
   2196000   284.36512     -7858.7816      575          
   2197000   300.81473     -7855.9966      575          
   2198000   274.58714     -7857.2816      575          
   2199000   336.79703     -7844.0677      575          
   2200000   319.74562     -7847.7769      575          
   2201000   268.93735     -7867.9423      575          
   2202000   332.87232     -7845.9979      575          
   2203000   299.27438     -7852.7317      575          
   2204000   328.22731     -7846.7337      575          
   2205000   337.95619     -7847.0894      575          
   2206000   279.6066      -7859.1722      575          
   2207000   278.82599     -7855.7991      575          
   2208000   304.12653     -7856.1674      575          
   2209000   299.07703     -7852.1755      575          
   2210000   305.63608     -7846.6052      575          
   2211000   294.60878     -7855.5779      575          
   2212000   327.33672     -7846.3782      575          
   2213000   286.20102     -7858.09        575          
   2214000   294.88054     -7853.7615      575          
   2215000   271.18779     -7861.5473      575          
   2216000   307.74256     -7850.9195      575          
   2217000   291.03852     -7859.545       575          
   2218000   277.64006     -7858.6218      575          
   2219000   285.01318     -7851.9344      575          
   2220000   306.26226     -7852.2405      575          
   2221000   302.43958     -7856.7632      575          
   2222000   381.87242     -7831.546       575          
   2223000   324.7439      -7845.3796      575          
   2224000   318.48378     -7849.9681      575          
   2225000   301.88222     -7854.9025      575          
   2226000   377.80421     -7830.4549      575          
   2227000   326.01934     -7845.6323      575          
   2228000   295.04385     -7856.5994      575          
   2229000   302.43393     -7854.9026      575          
   2230000   326.1286      -7849.7874      575          
   2231000   275.51069     -7858.6745      575          
   2232000   305.93249     -7853.917       575          
   2233000   294.25115     -7857.5315      575          
   2234000   331.8158      -7847.9669      575          
   2235000   325.099       -7848.3491      575          
   2236000   309.65491     -7852.0246      575          
   2237000   317.7513      -7846.4351      575          
   2238000   314.66218     -7847.96        575          
   2239000   283.92682     -7859.269       575          
   2240000   283.1226      -7853.9794      575          
   2241000   326.30428     -7846.5204      575          
   2242000   247.0303      -7866.1551      575          
   2243000   318.90784     -7844.7547      575          
   2244000   265.20088     -7862.332       575          
   2245000   308.53366     -7853.3287      575          
   2246000   328.71981     -7844.2005      575          
   2247000   322.33705     -7845.8229      575          
   2248000   290.80384     -7854.7458      575          
   2249000   280.23809     -7862.0956      575          
   2250000   354.82073     -7839.2462      575          
   2251000   270.45702     -7861.2635      575          
   2252000   310.04174     -7852.9538      575          
   2253000   401.1247      -7829.3396      575          
   2254000   306.88809     -7854.4891      575          
   2255000   304.13559     -7848.6623      575          
   2256000   346.06045     -7845.3985      575          
   2257000   258.53011     -7864.5165      575          
   2258000   288.10147     -7858.6583      575          
   2259000   362.56223     -7832.8259      575          
   2260000   268.49141     -7863.3953      575          
   2261000   325.00697     -7850.194       575          
   2262000   286.85062     -7854.3222      575          
   2263000   283.09265     -7861.2152      575          
   2264000   326.24614     -7844.6637      575          
   2265000   279.83458     -7858.3928      575          
   2266000   296.10134     -7857.0977      575          
   2267000   341.50264     -7842.1914      575          
   2268000   298.76743     -7856.6638      575          
   2269000   295.23675     -7853.4749      575          
   2270000   336.04826     -7845.1885      575          
   2271000   295.79016     -7857.5168      575          
   2272000   337.03949     -7841.0308      575          
   2273000   299.35299     -7853.5054      575          
   2274000   328.02939     -7846.6115      575          
   2275000   304.49445     -7851.2453      575          
   2276000   347.07748     -7839.9819      575          
   2277000   296.0503      -7857.4269      575          
   2278000   307.08848     -7850.2299      575          
   2279000   322.89511     -7845.455       575          
   2280000   308.04961     -7846.1311      575          
   2281000   282.71721     -7860.942       575          
   2282000   323.27304     -7848.3428      575          
   2283000   347.64021     -7843.2765      575          
   2284000   302.70048     -7849.973       575          
   2285000   293.89481     -7855.4017      575          
   2286000   323.15128     -7847.4023      575          
   2287000   309.56533     -7851.4241      575          
   2288000   272.83814     -7864.1247      575          
   2289000   301.53575     -7855.8376      575          
   2290000   316.48333     -7851.1389      575          
   2291000   324.63651     -7846.4254      575          
   2292000   302.00665     -7853.5553      575          
   2293000   263.47019     -7862.9333      575          
   2294000   363.10467     -7833.9844      575          
   2295000   306.63821     -7854.6532      575          
   2296000   310.0743      -7849.421       575          
   2297000   283.91249     -7857.7954      575          
   2298000   318.97158     -7844.7386      575          
   2299000   331.58957     -7843.8041      575          
   2300000   304.40784     -7850.2024      575          
   2301000   287.06603     -7858.0467      575          
   2302000   309.34153     -7851.2324      575          
   2303000   284.75171     -7855.6642      575          
   2304000   293.91438     -7859.3437      575          
   2305000   300.21237     -7854.4922      575          
   2306000   308.2176      -7850.502       575          
   2307000   365.33363     -7835.2566      575          
   2308000   323.5637      -7852.0299      575          
   2309000   325.36254     -7848.4905      575          
   2310000   251.0088      -7866.7859      575          
   2311000   293.63232     -7856.8624      575          
   2312000   277.71214     -7858.2282      575          
   2313000   313.91651     -7851.3178      575          
   2314000   277.02025     -7858.1858      575          
   2315000   305.38511     -7853.2137      575          
   2316000   278.90781     -7860.7639      575          
   2317000   336.41803     -7841.893       575          
   2318000   336.31629     -7840.6816      575          
   2319000   298.01735     -7853.5343      575          
   2320000   301.27402     -7852.4904      575          
   2321000   275.37485     -7862.8263      575          
   2322000   351.25676     -7841.206       575          
   2323000   296.39896     -7855.7096      575          
   2324000   302.42761     -7852.6763      575          
   2325000   330.41985     -7848.6068      575          
   2326000   265.24587     -7861.7393      575          
   2327000   327.07963     -7845.9004      575          
   2328000   263.58476     -7859.9038      575          
   2329000   339.44812     -7845.4657      575          
   2330000   363.87393     -7838.7491      575          
   2331000   326.18814     -7844.3493      575          
   2332000   291.86871     -7856.3831      575          
   2333000   348.15028     -7838.4869      575          
   2334000   308.59078     -7847.6778      575          
   2335000   313.59853     -7852.2466      575          
   2336000   302.55477     -7853.1048      575          
   2337000   301.45677     -7856.4418      575          
   2338000   322.34519     -7842.4728      575          
   2339000   265.73294     -7862.61        575          
   2340000   302.40753     -7854.4905      575          
   2341000   302.02917     -7853.1136      575          
   2342000   272.05387     -7856.9758      575          
   2343000   344.32273     -7838.2547      575          
   2344000   259.34148     -7867.0083      575          
   2345000   332.40818     -7847.0099      575          
   2346000   285.22565     -7858.2463      575          
   2347000   318.25597     -7845.2455      575          
   2348000   252.93311     -7866.1346      575          
   2349000   307.22681     -7855.0238      575          
   2350000   386.43634     -7831.8406      575          
   2351000   270.55482     -7861.8498      575          
   2352000   285.87066     -7858.6108      575          
   2353000   273.38159     -7862.9464      575          
   2354000   339.16834     -7841.5153      575          
   2355000   333.71048     -7842.3491      575          
   2356000   303.3152      -7853.2397      575          
   2357000   335.64999     -7849.0997      575          
   2358000   266.8831      -7861.9747      575          
   2359000   353.37235     -7840.9413      575          
   2360000   321.19996     -7847.4612      575          
   2361000   322.20778     -7849.7907      575          
   2362000   332.10476     -7847.9841      575          
   2363000   325.94159     -7846.4715      575          
   2364000   302.26275     -7854.1137      575          
   2365000   307.03079     -7849.024       575          
   2366000   273.8134      -7862.3923      575          
   2367000   339.70978     -7844.3549      575          
   2368000   301.10498     -7846.0273      575          
   2369000   368.55478     -7835.8334      575          
   2370000   293.44143     -7856.1032      575          
   2371000   317.66603     -7848.7024      575          
   2372000   296.03494     -7856.835       575          
   2373000   316.7074      -7850.5227      575          
   2374000   358.74301     -7831.8946      575          
   2375000   330.88531     -7846.8183      575          
   2376000   316.11488     -7852.5168      575          
   2377000   260.9962      -7863.4353      575          
   2378000   286.55856     -7860.2105      575          
   2379000   294.9654      -7856.9054      575          
   2380000   325.33009     -7845.6063      575          
   2381000   315.7682      -7851.5527      575          
   2382000   263.21111     -7863.1867      575          
   2383000   344.04813     -7838.7686      575          
   2384000   293.35149     -7853.9917      575          
   2385000   328.77128     -7844.1889      575          
   2386000   316.60158     -7852.2121      575          
   2387000   296.12449     -7857.2185      575          
   2388000   316.253       -7848.2407      575          
   2389000   293.58162     -7857.0229      575          
   2390000   291.70525     -7852.9403      575          
   2391000   322.57743     -7852.7333      575          
   2392000   333.00362     -7843.5256      575          
   2393000   329.31059     -7841.534       575          
   2394000   275.69402     -7861.381       575          
   2395000   298.4409      -7855.9537      575          
   2396000   298.1842      -7854.8297      575          
   2397000   292.50844     -7849.6273      575          
   2398000   315.29476     -7845.7439      575          
   2399000   293.042       -7853.5315      575          
   2400000   318.73901     -7850.6951      575          
   2401000   294.78116     -7859.3482      575          
   2402000   305.03246     -7852.9319      575          
   2403000   273.5693      -7857.2417      575          
   2404000   292.69571     -7853.0104      575          
   2405000   332.9319      -7842.6792      575          
   2406000   261.63285     -7863.689       575          
   2407000   322.21468     -7847.8701      575          
   2408000   307.95614     -7852.7731      575          
   2409000   322.76906     -7854.0063      575          
   2410000   330.65994     -7846.0845      575          
   2411000   276.25968     -7861.2297      575          
   2412000   307.13411     -7849.7196      575          
   2413000   301.85417     -7855.5681      575          
   2414000   291.52968     -7857.713       575          
   2415000   363.65216     -7831.5596      575          
   2416000   305.25007     -7851.3286      575          
   2417000   306.18819     -7851.0645      575          
   2418000   291.27289     -7854.2321      575          
   2419000   325.30258     -7848.316       575          
   2420000   334.64721     -7844.9896      575          
   2421000   295.06301     -7857.4166      575          
   2422000   335.0403      -7845.8235      575          
   2423000   267.55372     -7859.5608      575          
   2424000   326.01242     -7846.7847      575          
   2425000   316.49676     -7849.1348      575          
   2426000   316.02364     -7857.89        576          
   2427000   320.52613     -7859.9487      576          
   2428000   305.54828     -7864.3374      576          
   2429000   308.20697     -7863.0224      576          
   2430000   268.40688     -7880.1505      576          
   2431000   358.947       -7847.6632      576          
   2432000   282.46009     -7870.9186      576          
   2433000   296.90505     -7864.8946      576          
   2434000   280.93506     -7872.2018      576          
   2435000   281.00158     -7872.48        576          
   2436000   325.0249      -7854.1401      576          
   2437000   300.66588     -7863.0405      576          
   2438000   308.31078     -7865.4143      576          
   2439000   282.19052     -7874.3609      576          
   2440000   308.79685     -7862.5705      576          
   2441000   293.54407     -7871.5146      576          
   2442000   343.82705     -7853.2415      576          
   2443000   272.18317     -7871.0937      576          
   2444000   287.13194     -7869.6793      576          
   2445000   312.7733      -7864.4231      576          
   2446000   285.10577     -7873.2782      576          
   2447000   330.46634     -7856.5933      576          
   2448000   305.65892     -7861.3202      576          
   2449000   296.78615     -7866.4437      576          
   2450000   256.45068     -7877.309       576          
   2451000   324.29953     -7860.7259      576          
   2452000   290.44398     -7869.8239      576          
   2453000   316.4286      -7860.0512      576          
   2454000   273.54586     -7873.8794      576          
   2455000   355.50052     -7849.8606      576          
   2456000   291.55508     -7869.6712      576          
   2457000   313.03355     -7862.8271      576          
   2458000   313.20283     -7863.3307      576          
   2459000   314.65453     -7862.4588      576          
   2460000   337.08094     -7857.385       576          
   2461000   310.16016     -7861.9868      576          
   2462000   295.48886     -7863.9362      576          
   2463000   324.71127     -7862.2085      576          
   2464000   322.74393     -7857.6086      576          
   2465000   350.61572     -7851.2924      576          
   2466000   298.12617     -7866.3794      576          
   2467000   330.94381     -7858.5067      576          
   2468000   309.56298     -7863.1688      576          
   2469000   313.57499     -7862.1265      576          
   2470000   300.79846     -7864.8286      576          
   2471000   261.31493     -7875.2333      576          
   2472000   315.45243     -7860.1778      576          
   2473000   263.55249     -7875.2762      576          
   2474000   335.01788     -7856.4887      576          
   2475000   268.92424     -7876.4683      576          
   2476000   320.09295     -7858.2507      576          
   2477000   243.9972      -7882.7043      576          
   2478000   343.65029     -7853.2795      576          
   2479000   269.81142     -7871.8812      576          
   2480000   326.24281     -7859.5238      576          
   2481000   278.66026     -7871.727       576          
   2482000   327.78313     -7859.4367      576          
   2483000   303.98987     -7864.4542      576          
   2484000   321.46109     -7859.8075      576          
   2485000   293.20574     -7866.4913      576          
   2486000   270.74369     -7872.2841      576          
   2487000   280.11126     -7871.3134      576          
   2488000   311.57508     -7863.6955      576          
   2489000   303.04926     -7865.928       576          
   2490000   302.33292     -7862.4848      576          
   2491000   320.49702     -7867.2208      576          
   2492000   285.50629     -7867.5421      576          
   2493000   293.71845     -7870.6397      576          
   2494000   295.53573     -7872.4452      576          
   2495000   328.15717     -7861.0578      576          
   2496000   281.78704     -7873.878       576          
   2497000   353.53134     -7848.8377      576          
   2498000   287.80942     -7868.1126      576          
   2499000   304.84841     -7867.7774      576          
   2500000   308.70875     -7865.4667      576          
   2501000   290.46296     -7873.4286      576          
   2502000   259.26274     -7877.9433      576          
Loop time of 40807.7 on 8 procs for 2500000 steps with 1728 atoms

Performance: 5.293 ns/day, 4.534 hours/ns, 61.263 timesteps/s, 105.862 katom-step/s
799.9% CPU use with 1 MPI tasks x 8 OpenMP threads

MPI task timing breakdown:
Section |  min time  |  avg time  |  max time  |%varavg| %total
---------------------------------------------------------------
Pair    | 4387.4     | 4387.4     | 4387.4     |   0.0 | 10.75
Bond    | 26.368     | 26.368     | 26.368     |   0.0 |  0.06
Kspace  | 1153.3     | 1153.3     | 1153.3     |   0.0 |  2.83
Neigh   | 215.36     | 215.36     | 215.36     |   0.0 |  0.53
Comm    | 164.69     | 164.69     | 164.69     |   0.0 |  0.40
Output  | 0.12788    | 0.12788    | 0.12788    |   0.0 |  0.00
Modify  | 34848      | 34848      | 34848      |   0.0 | 85.40
Other   |            | 12.11      |            |       |  0.03

Nlocal:           1728 ave        1728 max        1728 min
Histogram: 1 0 0 0 0 0 0 0 0 0
Nghost:          14708 ave       14708 max       14708 min
Histogram: 1 0 0 0 0 0 0 0 0 0
Neighs:    1.09781e+06 ave 1.09781e+06 max 1.09781e+06 min
Histogram: 1 0 0 0 0 0 0 0 0 0

Total # of neighbors = 1097813
Ave neighs/atom = 635.30845
Ave special neighs/atom = 2
Neighbor list builds = 2550687
Dangerous builds = 0
Total wall time: 11:20:07
