LAMMPS data file via write_data, version 27 Jun 2024, timestep = 0, units = real

564 atoms
2 atom types
376 bonds
1 bond types
188 angles
1 angle types

-12.5 12.5 xlo xhi
-12.5 12.5 ylo yhi
-12.5 12.5 zlo zhi

Atom Type Labels

1 O
2 C

Bond Type Labels

1 C-O

Angle Type Labels

1 O-C-O

Masses

1 15.9994
2 12.011

Pair Coeffs # lj/cut/coul/long

1 0.164858 3.011
2 0.05894 2.789

Bond Coeffs # harmonic

1 0 1.18

Angle Coeffs # harmonic

1 0 180

Atoms # full

7 3 1 -0.288 -7.257250436004901 -11.243790029719982 -9.977997911014238 0 0 0
8 3 2 0.576 -6.087425150250748 -11.354500264327275 -10.085942548506866 0 0 0
9 3 1 -0.288 -4.917599864496596 -11.465210498934567 -10.193887185999493 0 0 0
142 48 1 -0.288 -4.451759768580212 -5.220638200792829 -6.157334538866415 0 0 0
158 53 2 0.576 -12.247125967287984 -12.4461322091269 -7.144038795793447 0 0 0
159 53 1 -0.288 -11.823692539353488 -11.448683125454853 -7.611157043766523 0 0 0
212 71 2 0.576 -10.665478812607693 -4.702403497510778 -8.295582663638323 0 0 0
213 71 1 -0.288 -9.93767196016069 -5.544725407886545 -8.686978862945503 0 0 0
252 84 1 -0.288 -4.857721059399748 -10.071640939508072 -5.1443695752741725 0 0 0
286 96 1 -0.288 -7.722789269351716 -10.448905951100864 -6.41631246068062 0 0 0
287 96 2 0.576 -7.665521544481405 -9.420598098971228 -6.992249409431707 0 0 0
288 96 1 -0.288 -7.608253819611094 -8.392290246841592 -7.568186358182794 0 0 0
305 102 2 0.576 -12.108535691913467 -8.159373989635787 -9.598643808671573 0 0 0
306 102 1 -0.288 -11.440249693401432 -8.696647535104459 -10.409279954875464 0 0 0
370 124 1 -0.288 -6.595582296989217 -4.544900036763762 -8.555779934143416 0 0 0
371 124 2 0.576 -6.06326630504954 -5.316788967613498 -9.27217868006424 0 0 0
372 124 1 -0.288 -5.530950313109863 -6.088677898463233 -9.988577425985063 0 0 0
435 145 1 -0.288 -8.962948177363359 -6.093008135584658 -11.94041383623378 0 0 1
544 182 1 -0.288 -9.008998304052838 -6.704516094170385 -5.502006585795166 0 0 0
545 182 2 0.576 -8.498388666658844 -7.418320535178446 -4.713234744134002 0 0 0
4 2 1 -0.288 2.506643378967674 -12.380619686243598 -10.53967524465933 0 1 0
103 35 1 -0.288 2.9085716396005816 -5.901138052227784 -10.999955762414626 0 0 0
104 35 2 0.576 3.8848974119801554 -6.529196849572099 -11.211450758255761 0 0 0
120 40 1 -0.288 -0.5177482716019136 -11.57647385710979 -10.515141125649052 0 1 0
121 41 1 -0.288 -0.33548782282913003 -9.357453218074925 -4.633047450112993 0 0 0
122 41 2 0.576 0.711976079368954 -8.818034046011991 -4.698211323562177 0 0 0
123 41 1 -0.288 1.759439981567038 -8.278614873949058 -4.763375197011361 0 0 0
143 48 2 0.576 -3.4839498652070535 -4.74538453493518 -5.677878655576091 0 0 0
144 48 1 -0.288 -2.516139961833895 -4.270130869077532 -5.198422772285767 0 0 0
235 79 1 -0.288 3.615833631367229 -5.456141895984995 -4.224897470342289 0 0 0
236 79 2 0.576 3.694603681189289 -4.7959302516169515 -5.199738926114393 0 0 0
250 84 1 -0.288 -3.1341021840393664 -8.501611541701624 -5.510082116110464 0 0 0
251 84 2 0.576 -3.995911621719557 -9.286626240604848 -5.327225845692318 0 0 0
301 101 1 -0.288 3.1037091239014414 -7.623886417282115 -8.018611937329167 0 0 0
302 101 2 0.576 4.057419086600383 -6.95741150735757 -8.215204158665241 0 0 0
322 108 1 -0.288 -2.011133199420253 -9.074975288312821 -11.333414652023661 0 0 0
323 108 2 0.576 -2.0948870291909607 -8.766299612478493 -10.197586926025146 0 0 0
324 108 1 -0.288 -2.1786408589616686 -8.457623936644165 -9.06175920002663 0 0 0
362 121 2 0.576 -2.61226917622251 -4.408044771714156 -11.008478199834226 0 0 0
363 121 1 -0.288 -2.503151228606272 -5.542279256651787 -11.315081211375679 0 0 0
454 152 1 -0.288 2.081040986605004 -12.242576692024725 -7.540783615743304 0 0 0
455 152 2 0.576 2.501228854526408 -11.846641974685081 -6.511668532160888 0 0 0
456 152 1 -0.288 2.921416722447812 -11.450707257345437 -5.482553448578472 0 0 0
469 157 1 -0.288 1.0488974432742695 -4.571339620138755 -8.472325104126876 0 0 0
470 157 2 0.576 0.7583577364023562 -4.28152428557236 -9.578667614645635 0 0 0
12 4 1 -0.288 9.808875320696954 -6.946075345387502 -12.273811174634247 0 0 1
105 35 1 -0.288 4.861223184359729 -7.157255646916413 -11.422945754096897 0 0 0
187 63 1 -0.288 7.126785732214584 -10.794899670370139 -4.609244089544891 0 0 0
188 63 2 0.576 6.57395232425721 -11.583286209070723 -5.291315851635912 0 0 0
189 63 1 -0.288 6.0211189162998355 -12.371672747771306 -5.973387613726933 0 0 0
196 66 1 -0.288 8.079562331787638 -9.785160466073 -7.776873275910907 0 0 0
197 66 2 0.576 9.043246273204332 -10.159886254770628 -7.208283929949758 0 0 0
198 66 1 -0.288 10.006930214621025 -10.534612043468256 -6.639694583988609 0 0 0
303 101 1 -0.288 5.011129049299325 -6.290936597433024 -8.411796380001315 0 0 0
304 102 1 -0.288 12.223178309574498 -7.622100444167114 -8.788007662467683 -1 0 0
367 123 1 -0.288 8.786808272560148 -6.6959062486324745 -7.141844990705675 0 0 0
368 123 2 0.576 8.69690177319427 -6.171897923886728 -6.08840676424485 0 0 0
369 123 1 -0.288 8.606995273828392 -5.647889599140982 -5.0349685377840245 0 0 0
437 146 2 0.576 5.518070791390759 -7.784209095539622 -4.202268734435675 0 0 0
438 146 1 -0.288 5.469627532014254 -8.026835782391807 -5.356038876815912 0 0 0
31 11 1 -0.288 -12.10621606490179 3.1975253920334143 -6.333556877153686 0 0 0
32 11 2 0.576 -11.166318086286223 2.6919237874410697 -6.836904477950607 0 0 0
33 11 1 -0.288 -10.226420107670656 2.186322182848725 -7.340252078747527 0 0 0
97 33 1 -0.288 -7.380312411673278 -1.8472440292664818 -5.323106459906591 0 0 0
98 33 2 0.576 -6.424507053533805 -1.6900487426622064 -4.649217923706965 0 0 0
109 37 1 -0.288 -10.704513250328837 -2.7159316294658566 -11.078178573572 0 0 0
110 37 2 0.576 -9.567609358144743 -2.81048233868111 -10.77666621342146 0 0 0
111 37 1 -0.288 -8.43070546596065 -2.9050330478963637 -10.475153853270921 0 0 0
130 44 1 -0.288 -5.494175104266442 1.2718700473657951 -6.283588089686706 0 0 0
131 44 2 0.576 -4.401389982971079 0.8385562050801489 -6.385861217922466 0 0 0
211 71 1 -0.288 -11.393285665054696 -3.860081587135011 -7.904186464331142 0 0 0
472 158 1 -0.288 -10.063595404678045 3.1581815280615393 -10.298159853680163 0 0 0
473 158 2 0.576 -9.20431832629457 3.021889967155591 -11.095322015972492 0 0 0
474 158 1 -0.288 -8.345041247911096 2.8855984062496427 -11.892484178264821 0 0 0
487 163 1 -0.288 -8.171306792729087 0.3287390797474625 -9.330325074243063 0 0 0
488 163 2 0.576 -7.02828855464621 0.5542620611629747 -9.517538033899637 0 0 0
489 163 1 -0.288 -5.885270316563333 0.7797850425784869 -9.70475099355621 0 0 0
511 171 1 -0.288 -7.723507894837477 3.036346352634557 -4.541533352792732 0 0 0
512 171 2 0.576 -7.572507460169731 3.8671169273402164 -5.365802192998026 0 0 0
132 44 1 -0.288 -3.3086048616757155 0.40524236279450265 -6.488134346158226 0 0 0
226 76 1 -0.288 1.0427455159899344 0.12090023518201592 -10.378842302260326 0 0 0
227 76 2 0.576 1.4503190708115312 0.5126231294184098 -9.343063864783879 0 0 0
228 76 1 -0.288 1.857892625633128 0.9043460236548038 -8.307285427307432 0 0 0
237 79 1 -0.288 3.7733737310113487 -4.135718607248908 -6.174580381886497 0 0 0
244 82 1 -0.288 1.3493165481113023 3.899786478402829 -10.742347994610409 0 0 0
245 82 2 0.576 2.478378342920159 4.104809459114826 -10.467420657150178 0 0 0
248 83 2 0.576 4.1246251396949525 -2.425277146941646 -11.633008648237682 0 0 0
249 83 1 -0.288 3.645023832468017 -2.8363424320230664 -10.636310139406078 0 0 0
358 120 1 -0.288 -1.433654135785499 -0.48469839553460237 -8.672988094445707 0 0 0
359 120 2 0.576 -0.6902545751958407 -1.1086453164967924 -8.001834361581986 0 0 0
360 120 1 -0.288 0.053144985393817734 -1.7325922374589826 -7.330680628718267 0 0 0
361 121 1 -0.288 -2.7213871238387477 -3.2738102867765253 -10.701875188292773 0 0 0
471 157 1 -0.288 0.4678180295304429 -3.9917089510059647 -10.685010125164395 0 0 0
517 173 1 -0.288 -3.439021118955804 3.2490732928788946 -8.851884699086227 0 0 0
518 173 2 0.576 -2.305408213196978 3.00416079838954 -9.069461467009718 0 0 0
519 173 1 -0.288 -1.1717953074381522 2.7592483039001854 -9.28703823493321 0 0 0
28 10 1 -0.288 11.025264951561976 -0.01987186377147193 -8.206889323945633 0 0 0
29 10 2 0.576 11.603772558320209 -0.3946123122678191 -7.2491322852434275 0 0 0
30 10 1 -0.288 12.182280165078442 -0.7693527607641664 -6.2913752465412225 0 0 0
175 59 1 -0.288 8.226492163662957 2.7363812408591257 -9.298494368742528 0 0 0
176 59 2 0.576 9.366812136427878 3.0115769433377206 -9.426313322934469 0 0 0
177 59 1 -0.288 10.5071321091928 3.2867726458163156 -9.55413227712641 0 0 0
277 93 1 -0.288 4.770491060025348 2.5828141051944202 -5.234028703536186 0 0 0
278 93 2 0.576 5.89650536114187 2.5656047114476586 -4.8816146992061356 0 0 0
279 93 1 -0.288 7.022519662258391 2.548395317700897 -4.529200694876085 0 0 0
346 116 1 -0.288 7.230522175154577 -0.9870792351002611 -8.679593729851568 0 0 0
347 116 2 0.576 6.754613630126517 -0.20871846364285673 -7.931218445501858 0 0 0
348 116 1 -0.288 6.278705085098458 0.5696423078145476 -7.182843161152148 0 0 0
445 149 1 -0.288 9.482872705577973 -3.111457204458824 -7.871870270147628 0 0 0
446 149 2 0.576 9.714523841261176 -2.997799923409614 -9.023312745393866 0 0 0
447 149 1 -0.288 9.946174976944379 -2.8841426423604046 -10.174755220640105 0 0 0
524 175 2 0.576 10.152163704695255 2.415384813172455 -4.62744501052771 0 0 0
525 175 1 -0.288 9.896572418777195 3.39606139626129 -5.2318840347013325 0 0 0
1 1 1 -0.288 -5.269881416775695 8.94235764311151 -5.5609288656483455 0 0 0
2 1 2 0.576 -4.894791353677768 8.24171873775391 -6.4331745700599505 0 0 0
3 1 1 -0.288 -4.519701290579841 7.54107983239631 -7.3054202744715555 0 0 0
43 15 1 -0.288 -6.2320098405722275 5.203162297147631 -9.093551112405718 0 0 0
44 15 2 0.576 -5.97341684320635 4.783116230872981 -10.165507717833625 0 0 0
45 15 1 -0.288 -5.714823845840473 4.363070164598331 -11.237464323261532 0 0 0
93 31 1 -0.288 -11.571949836872376 7.652317205768547 -12.41391066029637 1 0 0
124 42 1 -0.288 -9.007203639612204 6.778318793935658 -11.021049247311263 0 0 0
125 42 2 0.576 -9.586351794230916 7.18539436100302 -10.076974622242606 0 0 0
126 42 1 -0.288 -10.165499948849629 7.592469928070382 -9.132899997173949 0 0 0
174 58 1 -0.288 -5.826134782829079 8.763510624278485 -11.598772819557155 0 0 1
262 88 1 -0.288 -12.425687802980914 12.381897055046826 -11.211627006244935 0 0 0
263 88 2 0.576 -11.387389327346995 12.147575279068004 -10.702284704056702 0 0 0
264 88 1 -0.288 -10.349090851713076 11.913253503089182 -10.192942401868468 0 0 0
373 125 1 -0.288 -10.980154974021769 8.210317463633615 -5.689985186610012 0 0 0
374 125 2 0.576 -10.047369425905575 8.862058805004722 -5.377664285654977 0 0 0
375 125 1 -0.288 -9.114583877789382 9.513800146375829 -5.0653433846999425 0 0 0
481 161 1 -0.288 -7.332010414568465 10.691919810817788 -7.944473706009337 0 0 0
482 161 2 0.576 -6.237841685646139 10.5947893453272 -8.375473085732885 0 0 0
483 161 1 -0.288 -5.1436729567238135 10.497658879836612 -8.806472465456434 0 0 0
513 171 1 -0.288 -7.421507025501985 4.697887502045876 -6.19007103320332 0 0 0
5 2 2 0.576 2.6350010024080994 11.461847472918148 -10.729522664672473 0 0 0
6 2 1 -0.288 2.7633586258485248 10.304314632079894 -10.919370084685616 0 0 0
22 8 1 -0.288 -2.8732840356796876 6.250349942462033 -12.115467112630418 0 0 0
23 8 2 0.576 -2.5134609616424246 6.261617675778279 -10.991723194481676 0 0 0
24 8 1 -0.288 -2.1536378876051616 6.272885409094525 -9.867979276332933 0 0 0
85 29 1 -0.288 -0.5707474719841403 4.532046821316434 -6.7914276420985225 0 0 0
86 29 2 0.576 0.5194185827949163 4.868121034171487 -6.4897786797908035 0 0 0
87 29 1 -0.288 1.6095846375739729 5.204195247026541 -6.1881297174830845 0 0 0
118 40 1 -0.288 -1.253849677614042 11.329741384552804 -11.317525139585609 0 0 0
119 40 2 0.576 -0.8857989746079777 12.376633763721507 -10.91633313261733 0 0 0
246 82 1 -0.288 3.607440137729016 4.309832439826822 -10.192493319689948 0 0 0
261 87 1 -0.288 4.050135484559608 6.693733596830953 -4.964110344486621 0 0 0
268 90 1 -0.288 -3.1278577073405307 11.7894897170201 -6.205609540723831 0 0 0
269 90 2 0.576 -1.9478918353318662 11.781923577320725 -6.210435970551538 0 0 0
270 90 1 -0.288 -0.7679259633232016 11.774357437621351 -6.215262400379245 0 0 0
325 109 1 -0.288 1.2708142599519898 8.354527655666866 -4.959169472768556 0 0 0
326 109 2 0.576 1.8107697783553842 8.607664818925628 -5.977388316987729 0 0 0
327 109 1 -0.288 2.3507252967587786 8.86080198218439 -6.995607161206902 0 0 0
390 130 1 -0.288 -0.18756419487773776 8.28895687593319 -12.057214335042616 0 0 1
529 177 1 -0.288 -1.5345081896447006 8.822460286509603 -6.725682377307395 0 0 0
530 177 2 0.576 -1.0704477962900185 8.983887753674708 -7.798523989179416 0 0 0
531 177 1 -0.288 -0.6063874029353363 9.145315220839812 -8.871365601051437 0 0 0
52 18 1 -0.288 9.961224811491288 11.685221449647294 -9.86279558545444 0 0 0
53 18 2 0.576 9.254223863479787 10.740473504755865 -9.861805568152016 0 0 0
54 18 1 -0.288 8.547222915468286 9.795725559864437 -9.860815550849592 0 0 0
64 22 1 -0.288 8.974070801616636 7.4876052314534665 -5.670774727851019 0 0 0
65 22 2 0.576 9.779102516956208 7.376002483012158 -6.5262680146965515 0 0 0
66 22 1 -0.288 10.58413423229578 7.2643997345708495 -7.381761301542084 0 0 0
91 31 1 -0.288 11.068609100606457 7.699928372937833 -12.394648021594257 0 0 0
92 31 2 0.576 12.24832963186704 7.67612278935319 -12.404279340945314 0 0 0
157 53 1 -0.288 12.32944060477752 11.556418707201054 -6.676920547820371 -1 -1 0
232 78 1 -0.288 6.813113090406091 4.998563418350658 -12.197808496393547 0 0 0
233 78 2 0.576 7.833369900627698 5.4479198497477554 -11.811085289489052 0 0 0
234 78 1 -0.288 8.853626710849305 5.897276281144853 -11.424362082584556 0 0 0
259 87 1 -0.288 5.43191382158815 8.10895482848398 -6.251525387430083 0 0 0
260 87 2 0.576 4.741024653073879 7.401344212657467 -5.607817865958352 0 0 0
475 159 1 -0.288 6.244517322571389 11.88985501163036 -11.355183232784402 0 0 0
476 159 2 0.576 6.215394785960854 12.140167644079852 -10.20240594991595 0 0 0
477 159 1 -0.288 6.186272249350318 12.390480276529345 -9.049628667047497 0 0 0
514 172 1 -0.288 5.648348984155906 5.279816496526418 -7.540312232879702 0 0 0
515 172 2 0.576 5.734568062813285 5.8854317028938965 -8.549369462323082 0 0 0
516 172 1 -0.288 5.820787141470664 6.491046909261375 -9.55842669176646 0 0 0
69 23 1 -0.288 -11.9942576493686 -6.469721213323982 3.9460156036351064 0 0 0
193 65 1 -0.288 -6.222542686994478 -7.890534774580439 1.6367663076521048 0 0 0
194 65 2 0.576 -5.304831053505107 -8.295516260338722 2.2582124871007228 0 0 0
195 65 1 -0.288 -4.387119420015736 -8.700497746097005 2.8796586665493407 0 0 0
274 92 1 -0.288 -8.242987930524373 -4.437490135995907 2.7499905150574233 0 0 0
275 92 2 0.576 -8.966772151862632 -4.539556355234028 3.676337581675657 0 0 0
280 94 1 -0.288 -10.701827949803565 -8.496359521189595 -0.7240941012813032 0 0 0
281 94 2 0.576 -9.521835843111312 -8.495015171819839 -0.7199927760381204 0 0 0
282 94 1 -0.288 -8.341843736419058 -8.493670822450083 -0.7158914507949375 0 0 0
283 95 1 -0.288 -11.970954171165097 -11.911806922460856 -4.163033892489588 0 0 0
284 95 2 0.576 -10.906860918461746 -11.61145658656557 -3.750850407523499 0 0 0
285 95 1 -0.288 -9.842767665758394 -11.311106250670283 -3.33866692255741 0 0 0
366 122 1 -0.288 -12.094120453519213 -8.399535199864417 -4.165829324890583 1 0 0
379 127 1 -0.288 -4.782578544976672 -10.88184414965894 0.19766856602291805 0 0 0
382 128 1 -0.288 -9.181914964068874 -4.386217109164781 -3.3647612963977616 0 0 0
383 128 2 0.576 -8.054961227138975 -4.733344524741799 -3.321427335413837 0 0 0
384 128 1 -0.288 -6.928007490209076 -5.080471940318818 -3.2780933744299126 0 0 0
409 137 1 -0.288 -8.79760693773948 -10.370335418609008 2.487571044845697 0 0 0
410 137 2 0.576 -8.627923704277688 -9.513697795110614 3.2811575759114504 0 0 0
411 137 1 -0.288 -8.458240470815895 -8.65706017161222 4.074744106977204 0 0 0
457 153 1 -0.288 -5.278821705939375 -7.819733039880713 -1.3313983584854583 0 0 0
458 153 2 0.576 -4.4955692798809945 -7.032886959860515 -1.731134375664933 0 0 0
526 176 1 -0.288 -11.754672664179697 -5.175894311004689 1.0407755270530026 0 0 0
527 176 2 0.576 -10.759227791921807 -5.341498829816235 0.4291672785436571 0 0 0
528 176 1 -0.288 -9.763782919663917 -5.507103348627781 -0.18244096996568826 0 0 0
546 182 1 -0.288 -7.987779029264851 -8.132124976186507 -3.924462902472839 0 0 0
548 183 2 0.576 -12.419533519968173 -10.099870105087696 1.4831437910828473 0 0 0
549 183 1 -0.288 -11.829398057246378 -10.869965320498428 0.8115088494369925 0 0 0
55 19 1 -0.288 2.375672211202014 -7.302721098206251 -0.11688385352327499 0 0 0
56 19 2 0.576 2.6338160690543315 -8.453327403847746 -0.07367646907161784 0 0 0
57 19 1 -0.288 2.891959926906649 -9.60393370948924 -0.030469084619960694 0 0 0
139 47 1 -0.288 1.1756807472025443 -11.358940374020083 3.2723172788223667 0 0 0
140 47 2 0.576 2.355484438527137 -11.373041674435624 3.2885777604713002 0 0 0
141 47 1 -0.288 3.53528812985173 -11.387142974851166 3.304838242120234 0 0 0
309 103 1 -0.288 3.519013911647402 -5.001702538177763 3.9566131135673124 0 0 0
321 107 1 -0.288 -0.8359910164752553 -5.882756747138013 3.9532754426437413 0 0 0
328 110 1 -0.288 0.0298580699105907 -6.357217007609824 -2.516847580922421 0 0 0
329 110 2 0.576 0.7820856819311555 -5.4859437830680715 -2.257162025085261 0 0 0
330 110 1 -0.288 1.5343132939517203 -4.614670558526319 -1.997476469248101 0 0 0
380 127 2 0.576 -4.098627595975355 -10.634005557808097 -0.7314100806747597 0 0 0
381 127 1 -0.288 -3.414676646974038 -10.386166965957253 -1.6604887273724374 0 0 0
385 129 1 -0.288 -1.4261622131630456 -7.530287477909773 0.6820496407212889 0 0 0
386 129 2 0.576 -1.0238927153516055 -8.564866914444075 0.28176893842488937 0 0 0
387 129 1 -0.288 -0.6216232175401655 -9.599446350978376 -0.11851176387151019 0 0 0
459 153 1 -0.288 -3.7123168538226143 -6.246040879840317 -2.1308703928444075 0 0 0
16 6 1 -0.288 8.383889282776552 -11.783283109222682 3.536437681435055 0 0 0
17 6 2 0.576 7.899250413942731 -12.29829286448578 2.591826587492518 0 0 0
145 49 1 -0.288 9.652296528571204 -11.008751578946859 -0.10169717105439613 0 0 0
146 49 2 0.576 9.97881047543083 -11.132339434061358 -1.228868269235301 0 0 0
147 49 1 -0.288 10.305324422290456 -11.255927289175856 -2.356039367416206 0 0 0
231 77 1 -0.288 6.374613080088453 -4.300754752421829 0.6685071279129752 0 0 0
310 104 1 -0.288 8.771519687350779 -8.87335016258855 2.4941335603440824 0 0 0
311 104 2 0.576 8.94373050958092 -7.721325473497307 2.6827669307509296 0 0 0
312 104 1 -0.288 9.115941331811062 -6.569300784406066 2.871400301157777 0 0 0
349 117 1 -0.288 11.714528813801326 -6.870450861816416 -1.1096510640177677 0 0 0
350 117 2 0.576 10.605299611624936 -6.729427419709706 -1.486643061035613 0 0 0
351 117 1 -0.288 9.496070409448546 -6.588403977602996 -1.8636350580534582 0 0 0
364 122 1 -0.288 10.562493400342401 -8.656347542790062 -4.055426468914306 0 0 0
365 122 2 0.576 11.734186473411594 -8.52794137132724 -4.110627896902445 0 0 0
436 146 1 -0.288 5.566514050767264 -7.541582408687438 -3.048498592055438 0 0 0
499 167 1 -0.288 5.200899266156941 -7.050722425061833 1.0494548108771014 0 0 0
500 167 2 0.576 5.986625488608436 -7.785412958024727 0.564414478402778 0 0 0
501 167 1 -0.288 6.7723517110599305 -8.520103490987621 0.07937414592845476 0 0 0
547 183 1 -0.288 11.990331017310032 -9.329774889676964 2.154778732728702 -1 0 0
60 20 1 -0.288 -12.499940076030555 -3.7276711205947475 -2.059890516950664 1 0 0
70 24 1 -0.288 -4.8019298197417015 -1.868255702747873 3.1230831375505326 0 0 0
99 33 1 -0.288 -5.468701695394333 -1.532853456057931 -3.9753293875073394 0 0 0
217 73 1 -0.288 -11.123857896052188 4.011196970054952 2.460166570974133 0 0 0
218 73 2 0.576 -10.242561808667407 3.263681726885812 2.698783769830495 0 0 0
219 73 1 -0.288 -9.361265721282626 2.5161664837166717 2.937400968686857 0 0 0
292 98 1 -0.288 -10.461012032847703 2.258747579598648 -3.1013493681762303 0 0 0
293 98 2 0.576 -9.69825865337544 1.3668127189701487 -2.978632268718737 0 0 0
294 98 1 -0.288 -8.935505273903177 0.47487785834164964 -2.855915169261244 0 0 0
338 113 2 0.576 -12.496418657245309 -2.308372321915055 3.186385573673242 0 0 0
339 113 1 -0.288 -11.327232241085724 -2.451466358656753 3.1161914078410833 0 0 0
355 119 1 -0.288 -9.896523841425724 -2.230243845423908 -0.30595033401759675 0 0 0
356 119 2 0.576 -8.923473149269574 -1.813219773728969 0.21526293722692103 0 0 0
357 119 1 -0.288 -7.950422457113424 -1.3961957020340299 0.7364762084714388 0 0 0
424 142 1 -0.288 -6.736880805003787 0.8920611962435077 2.8525260473235297 0 0 0
425 142 2 0.576 -5.624080259876363 1.0830722579653695 3.1954396239926304 0 0 0
426 142 1 -0.288 -4.511279714748939 1.2740833196872314 3.538353200661731 0 0 0
443 148 2 0.576 -12.174944660940648 0.7050835705385925 0.33957004213685593 0 0 0
444 148 1 -0.288 -11.503408492877814 0.8134027694785522 1.303782739690923 0 0 0
71 24 2 0.576 -3.9836191881837415 -2.687695804139457 2.8966198281369255 0 0 0
72 24 1 -0.288 -3.1653085566257815 -3.507135905531041 2.6701565187233185 0 0 0
88 30 1 -0.288 0.14683965670518484 1.3038631834031804 1.242357273751487 0 0 0
89 30 2 0.576 1.2897287559647719 1.471201499910654 1.4836089983506167 0 0 0
90 30 1 -0.288 2.432617855224359 1.6385398164181275 1.7248607229497463 0 0 0
178 60 1 -0.288 -3.9349733857891884 -2.587808201160874 -0.9527944773874207 0 0 0
179 60 2 0.576 -3.0480185596030296 -3.0479312481116185 -1.580487011969316 0 0 0
180 60 1 -0.288 -2.1610637334168707 -3.508054295062363 -2.2081795465512113 0 0 0
253 85 1 -0.288 0.005493392437405209 0.6377381044911876 -3.19289067961556 0 0 0
254 85 2 0.576 1.0516639861984487 0.31661603730945487 -3.6342609399623527 0 0 0
255 85 1 -0.288 2.097834579959492 -0.004506029872277939 -4.075631200309145 0 0 0
313 105 1 -0.288 4.034293848177804 -1.9312014186575277 3.397691049447171 0 0 0
340 114 1 -0.288 -1.1408475649265735 4.072838732003687 4.131779469943076 0 0 0
412 138 1 -0.288 -3.4801652069177016 1.615946095500216 -1.7530164302300133 0 0 0
413 138 2 0.576 -3.2559925298001584 1.5335516487404472 -0.5974396192922438 0 0 0
414 138 1 -0.288 -3.0318198526826152 1.4511572019806784 0.5581371916455258 0 0 0
493 165 1 -0.288 -0.6530911074689583 -3.236583659892458 0.6832873926222626 0 0 0
494 165 2 0.576 0.5248823613044262 -3.3021535565155347 0.7051756434166698 0 0 0
495 165 1 -0.288 1.7028558300778107 -3.3677234531386113 0.7270638942110771 0 0 0
553 185 1 -0.288 1.9905316682910756 3.293676467119586 -3.5846104250902777 0 0 0
554 185 2 0.576 1.2407971959285415 4.078471971013801 -3.1215831710126185 0 0 0
556 186 1 -0.288 3.549075999009202 0.6913482849415165 -1.398786524132468 0 0 0
49 17 1 -0.288 4.692857189247908 3.669662348708298 -2.19212365566257 0 0 0
58 20 1 -0.288 10.939108702677608 -4.165220822344461 -3.774994462268924 0 0 0
59 20 2 0.576 11.719584313323526 -3.946445971469604 -2.917442489609794 0 0 0
152 51 2 0.576 7.4642309779134735 1.3300457917293755 4.079621595600443 0 0 0
153 51 1 -0.288 6.9835348337907615 2.0551466053110996 3.2824014082188904 0 0 0
160 54 1 -0.288 9.364007458034676 2.594584015090123 -1.2010290281036882 0 0 0
161 54 2 0.576 9.524442440375893 2.304095397612125 -0.06865233302519336 0 0 0
162 54 1 -0.288 9.68487742271711 2.0136067801341264 1.0637243620533015 0 0 0
229 77 1 -0.288 7.309763034278303 -2.389891085590458 -0.35310660044157494 0 0 0
230 77 2 0.576 6.842188057183378 -3.3453229190061435 0.15770026373570012 0 0 0
298 100 1 -0.288 7.511060738254347 -1.973313767845802 -3.54247286231194 0 0 0
299 100 2 0.576 6.680184646593492 -1.1366447031668603 -3.5875261254084876 0 0 0
300 100 1 -0.288 5.849308554932637 -0.29997563848791864 -3.632579388505035 0 0 0
314 105 2 0.576 4.167795165752896 -1.866649191065994 2.227045753843637 0 0 0
315 105 1 -0.288 4.301296483327987 -1.8020969634744601 1.056400458240103 0 0 0
337 113 1 -0.288 11.334394926595106 -2.1652782851733567 3.2565797395054004 -1 0 0
442 148 1 -0.288 12.153519170996518 0.5967643715986328 -0.6246426554172111 -1 0 0
523 175 1 -0.288 10.407754990613315 1.43470823008362 -4.023005986354088 0 0 0
533 178 2 0.576 7.443179397351656 -2.483868710689185 3.6185794468589982 0 0 0
534 178 1 -0.288 8.106456500552277 -2.077760679016371 2.7311450825364156 0 0 0
557 186 2 0.576 4.361343263583883 1.0962310543266263 -0.64466993238063 0 0 0
558 186 1 -0.288 5.173610528158565 1.501113823711736 0.1094466593712079 0 0 0
34 12 1 -0.288 -8.795035750907065 5.9022492819099925 -0.11713607907417205 0 0 0
35 12 2 0.576 -7.853560915847105 5.201687357715183 -0.24057888087843438 0 0 0
36 12 1 -0.288 -6.9120860807871445 4.501125433520374 -0.3640216826826967 0 0 0
94 32 1 -0.288 -4.8542581289302555 4.223313963304434 -3.2852630250371373 0 0 0
190 64 1 -0.288 -6.073362933428943 12.212138312873602 -4.099365372153914 0 0 0
191 64 2 0.576 -6.145518444779105 12.271498597586294 -2.9230703671570275 0 0 0
192 64 1 -0.288 -6.217673956129267 12.330858882298987 -1.7467753621601412 0 0 0
205 69 1 -0.288 -10.325211893225697 11.254884854016694 0.7836116149075748 0 0 0
206 69 2 0.576 -9.45076970241534 10.9136115053732 0.06857080737527887 0 0 0
207 69 1 -0.288 -8.576327511604982 10.572338156729707 -0.646470000157017 0 0 0
208 70 1 -0.288 -5.461243729526172 9.56355128517686 3.447753460092334 0 0 0
209 70 2 0.576 -5.651778701297835 10.555367287274155 4.057997216730378 0 0 0
223 75 1 -0.288 -6.3511197507395 5.354362563813927 2.7288499705628277 0 0 0
224 75 2 0.576 -5.295124448740447 4.843390019304767 2.856054455207685 0 0 0
225 75 1 -0.288 -4.239129146741394 4.332417474795607 2.9832589398525426 0 0 0
317 106 2 0.576 -5.007874077422486 7.660380760282457 -1.980561932772659 0 0 0
318 106 1 -0.288 -5.960670952763209 7.378443777527529 -1.3440953962634707 0 0 0
421 141 1 -0.288 -10.533494490307884 5.369186451919061 -3.560341086990055 0 0 0
422 141 2 0.576 -9.620627340451176 6.1162890371011045 -3.530153441722577 0 0 0
423 141 1 -0.288 -8.707760190594467 6.863391622283148 -3.499965796455099 0 0 0
478 160 1 -0.288 -8.433210144981828 9.404164775668733 2.807019129904543 0 0 0
479 160 2 0.576 -9.32595176707299 8.728650804249874 2.434067027612622 0 0 0
480 160 1 -0.288 -10.218693389164152 8.053136832831015 2.0611149253207013 0 0 0
95 32 2 0.576 -3.7228832678975916 4.500916445162574 -3.0973061526181667 0 0 0
96 32 1 -0.288 -2.5915084068649277 4.778518927020714 -2.909349280199196 0 0 0
106 36 1 -0.288 2.3946470036135867 5.222305486603009 -0.05194794407175607 0 0 0
107 36 2 0.576 2.7164826007636638 5.92307103491531 -0.945116178339866 0 0 0
108 36 1 -0.288 3.038318197913741 6.623836583227611 -1.838284412607976 0 0 0
134 45 2 0.576 -2.169489622893506 12.387908028852152 3.5702409181139636 0 0 0
135 45 1 -0.288 -1.5437604097125497 11.604310265228623 2.9482783013787266 0 0 0
154 52 1 -0.288 3.946649219956448 11.029076009362257 -2.759024481979429 0 0 0
186 62 1 -0.288 3.9384275016943664 9.024632315169377 3.3492173254740156 0 0 0
265 89 1 -0.288 -1.928255647334598 9.676373242205075 -1.0009792125930468 0 0 0
266 89 2 0.576 -1.339615340735584 10.084968257036511 -1.9385039873600487 0 0 0
267 89 1 -0.288 -0.7509750341365701 10.493563271867947 -2.8760287621270506 0 0 0
316 106 1 -0.288 -4.055077202081764 7.9423177430373855 -2.617028469281847 0 0 0
341 114 2 0.576 -0.544120226075929 4.971360341865271 3.6532657296179174 0 0 0
342 114 1 -0.288 0.052607112774715414 5.869881951726855 3.1747519892927585 0 0 0
430 144 1 -0.288 -3.756151702262663 7.009606466462714 0.90635098750448 0 0 0
431 144 2 0.576 -2.687472007324674 6.657972894216872 0.5504331030186407 0 0 0
432 144 1 -0.288 -1.6187923123866848 6.306339321971031 0.1945152185328014 0 0 0
466 156 1 -0.288 2.020803576299715 10.39208059380775 1.0590846644617022 0 0 0
467 156 2 0.576 3.0246917347073055 10.993985225676553 0.9096879458100009 0 0 0
468 156 1 -0.288 4.028579893114896 11.595889857545357 0.7602912271582996 0 0 0
550 184 1 -0.288 -2.156193089771876 8.464925852144269 3.8745688939699763 0 0 0
551 184 2 0.576 -1.0332787472444025 8.68409506333251 3.5857294295382367 0 0 0
552 184 1 -0.288 0.08963559528307141 8.903264274520751 3.296889965106497 0 0 0
555 185 1 -0.288 0.49106272356600733 4.8632674749080165 -2.6585559169349593 0 0 0
18 6 1 -0.288 7.41461154510891 12.18669738025112 1.647215493549981 0 -1 0
19 7 1 -0.288 11.015768408423568 10.555835060656296 0.2381716988962641 0 0 0
20 7 2 0.576 10.829455986772409 10.666769683904374 1.398077380795998 0 0 0
21 7 1 -0.288 10.64314356512125 10.777704307152451 2.5579830626957323 0 0 0
50 17 2 0.576 5.469717536107506 4.542629358844195 -2.02836590564268 0 0 0
51 17 1 -0.288 6.246577882967104 5.415596368980092 -1.8646081556227896 0 0 0
73 25 1 -0.288 7.3350178049260375 7.407704700181334 0.7249381649550696 0 0 0
74 25 2 0.576 8.489451497322626 7.211315501346867 0.5796311367673948 0 0 0
75 25 1 -0.288 9.643885189719215 7.0149263025124 0.4343241085797199 0 0 0
100 34 1 -0.288 9.79667757771674 10.210516616007794 -3.3857309565327443 0 0 0
101 34 2 0.576 10.594356257046737 9.345612184538325 -3.2960144643653244 0 0 0
102 34 1 -0.288 11.392034936376735 8.480707753068856 -3.2062979721979046 0 0 0
155 52 2 0.576 5.126497728110525 11.047316353557314 -2.7540457622399757 0 0 0
156 52 1 -0.288 6.306346236264602 11.06555669775237 -2.7490670425005224 0 0 0
427 143 1 -0.288 9.0616370945826 5.435298036164554 -3.0859704930502003 0 0 0
428 143 2 0.576 10.223740070463968 5.399364287918136 -2.8844129598626917 0 0 0
429 143 1 -0.288 11.385843046345336 5.363430539671717 -2.682855426675183 0 0 0
535 179 1 -0.288 8.160363921005684 4.845425382693986 2.804597441393142 0 0 0
536 179 2 0.576 9.317826117304072 4.703553529551044 2.624171164410269 0 0 0
537 179 1 -0.288 10.47528831360246 4.561681676408102 2.443744887427396 0 0 0
40 14 1 -0.288 -6.3305388015391175 -7.913047094168156 11.478178694214328 0 0 0
41 14 2 0.576 -5.469951949999645 -8.482423644039045 10.90581463575634 0 0 0
42 14 1 -0.288 -4.609365098460173 -9.051800193909935 10.33345057729835 0 0 0