LAMMPS data file via write_data, version 27 Jun 2024, timestep = 0, units = real

600 atoms
2 atom types
400 bonds
1 bond types
200 angles
1 angle types

-40 40 xlo xhi
-40 40 ylo yhi
-40 40 zlo zhi

Atom Type Labels

1 O
2 H

Bond Type Labels

1 O-H

Angle Type Labels

1 H-O-H

Masses

1 15.9994
2 1.00784

Pair Coeffs # lj/cut/coul/long

1 0.15535 3.166
2 0 1

Bond Coeffs # harmonic

1 0 1

Angle Coeffs # harmonic

1 0 109.47

Atoms # full

150 50 2 0.4238 -2.418903469497664 -39.7893903536566 -34.31752244595706 0 1 0
301 101 2 0.4238 12.787514217865079 -31.030046461723586 -38.89779525296636 0 0 0
302 101 1 -0.8476 12.055212175962794 -30.432242567643826 -38.57165996869185 0 0 0
303 101 2 0.4238 11.608066379077473 -30.063576750601435 -37.75670871476036 0 0 0
508 170 2 0.4238 19.820020631786136 -30.414139105947026 -34.6919798013937 0 0 0
509 170 1 -0.8476 20.81522391151556 -30.41116293504591 -34.7897631047873 0 0 0
510 170 2 0.4238 21.6191343371909 -29.828853520080816 -34.910772060430055 0 0 0
124 42 2 0.4238 11.562085115692215 -20.556489298654554 -35.658801805112844 0 0 0
125 42 1 -0.8476 12.389479838047786 -21.088742516742958 -35.83803485243584 0 0 0
126 42 2 0.4238 13.343450201269468 -21.035057940494635 -36.133090621706636 0 0 0
136 46 2 0.4238 -31.570888465850516 -8.937468080740329 -34.538961544473985 0 0 0
137 46 1 -0.8476 -30.60741059111823 -9.017595800414272 -34.28344259519387 0 0 0
138 46 2 0.4238 -29.670750781220775 -9.02556657018405 -34.633591509178174 0 0 0
289 97 2 0.4238 -36.52547575061524 14.037724393508922 -35.682921931824325 0 0 0
290 97 1 -0.8476 -35.52620725063005 14.066696075191556 -35.7078840350576 0 0 0
291 97 2 0.4238 -34.7298499432987 14.671380580274853 -35.72096390449069 0 0 0
45 15 2 0.4238 -18.723249824312767 14.704178987765086 -33.163338359293334 0 0 0
235 79 2 0.4238 -12.123541155599792 14.752866445224175 -37.00662068601448 0 0 0
236 79 1 -0.8476 -11.501361938689582 14.727136731672768 -37.78907260395293 0 0 0
237 79 2 0.4238 -10.829506867510906 15.251768845765623 -38.31192182008145 0 0 0
577 193 2 0.4238 24.317371797756476 16.897965343068485 -38.057992284604616 0 0 0
578 193 1 -0.8476 25.181996213198516 17.27877587815077 -37.73026075332962 0 0 0
579 193 2 0.4238 25.700983035070912 18.123289336359175 -37.59816574116066 0 0 0
166 56 2 0.4238 36.45009538067616 16.551720185656983 -36.11348096649572 0 0 0
167 56 1 -0.8476 36.628870599616995 17.143322304557334 -35.32732172435373 0 0 0
168 56 2 0.4238 36.39274314699875 17.32025990477523 -34.37184471973175 0 0 0
114 38 2 0.4238 -39.922039757810204 24.933391865932286 -39.70727527441946 1 0 0
323 108 1 -0.8476 -39.7220402862529 19.15127411654319 -37.97082550225534 0 0 0
324 108 2 0.4238 -39.3274466908047 19.859851772586754 -37.3858357635425 0 0 0
22 8 2 0.4238 -8.502584118329978 19.962731873659557 -36.010457354612036 0 0 0
23 8 1 -0.8476 -8.197649309823822 19.97228080019875 -35.0581320002487 0 0 0
24 8 2 0.4238 -7.4289918036134726 20.176517013613154 -34.45195331216334 0 0 0
112 38 2 0.4238 38.25312053082429 24.388780567617577 -39.68282213180615 0 0 0
113 38 1 -0.8476 39.25288369290953 24.36860634424076 -39.69098426684942 0 0 0
322 108 2 0.4238 39.431341340021234 18.81515244061605 -38.38345069324797 -1 0 0
543 181 2 0.4238 -39.78472351706571 28.44993601531474 -35.486328767246796 1 0 0
346 116 2 0.4238 -27.221301455975496 30.339617572340316 -34.915241576244064 0 0 0
347 116 1 -0.8476 -27.806527159207704 30.321892679538127 -34.10456488085217 0 0 0
348 116 2 0.4238 -27.94649421559736 29.894672819256254 -33.2113169820477 0 0 0
330 110 2 0.4238 -18.55959942741659 29.334410817252067 -39.74047817668658 0 0 1
557 186 1 -0.8476 -12.264973543876078 26.63780561832258 -39.139658857079134 0 0 0
558 186 2 0.4238 -12.18922957365702 27.179523715272282 -38.30251863643214 0 0 0
595 199 2 0.4238 -5.559513102029357 30.100554643472872 -35.098053193945915 0 0 0
596 199 1 -0.8476 -5.0699429494397545 30.5770721705357 -35.828294326788566 0 0 0
597 199 2 0.4238 -5.172776970145137 31.191978915287113 -36.61016020662797 0 0 0
541 181 2 0.4238 38.569596962786264 29.313015433647095 -35.9035484087172 0 0 0
542 181 1 -0.8476 39.42818235781918 29.06593864316374 -35.45434446946398 0 0 0
148 50 2 0.4238 -3.1983370310838994 38.85893877694208 -35.40963442670681 0 0 0
149 50 1 -0.8476 -2.8864296556550313 39.74613570844099 -35.069641200462506 0 0 0
4 2 2 0.4238 8.454854834709554 37.58752754828006 -34.03573923956746 0 0 0
5 2 1 -0.8476 8.563632481692965 36.60656751367137 -34.196626883646395 0 0 0
6 2 2 0.4238 8.277522306715234 35.83964067806281 -34.77105145764188 0 0 0
7 3 2 0.4238 -20.428429993068914 -36.439158840256816 -32.196172662894234 0 0 0
8 3 1 -0.8476 -19.437052632260308 -36.53298107297486 -32.287651169243915 0 0 0
9 3 2 0.4238 -18.57379881707796 -36.031062624310145 -32.34122463352778 0 0 0
436 146 2 0.4238 15.074954014081346 -35.205908355215286 -27.907268176580157 0 0 0
437 146 1 -0.8476 14.179059952985156 -35.594638268301715 -28.122356265428408 0 0 0
438 146 2 0.4238 13.193401438094906 -35.488738828722816 -27.990971352544655 0 0 0
484 162 2 0.4238 -34.75481696712178 -14.333752741905478 -26.417508662681968 0 0 0
485 162 1 -0.8476 -34.138031498946354 -15.047584869342568 -26.749200357010086 0 0 0
486 162 2 0.4238 -33.49574813496572 -15.761735964855419 -26.47088455123585 0 0 0
553 185 2 0.4238 4.148608366737208 1.419277208196164 -30.68888053792583 0 0 0
554 185 1 -0.8476 4.49400968438263 1.751245762633786 -29.811102201081383 0 0 0
555 185 2 0.4238 5.28044502867087 1.7506590715867885 -29.193430362918026 0 0 0
295 99 2 0.4238 28.996615591340465 6.974445712273541 -26.60429505908924 0 0 0
296 99 1 -0.8476 29.40649633072013 7.176445406289466 -25.714804247948926 0 0 0
334 112 2 0.4238 29.071986159825407 9.321603531914793 -30.230491279546563 0 0 0
335 112 1 -0.8476 30.038359018100763 9.55482022893055 -30.33881242716685 0 0 0
336 112 2 0.4238 30.811051331781435 10.034714895196784 -29.923304193457476 0 0 0
355 119 2 0.4238 25.621744933501095 4.514713113696614 -25.99360625413728 0 0 0
356 119 1 -0.8476 26.369174454351935 5.031529619168999 -25.576173851188013 0 0 0
43 15 2 0.4238 -19.420349239202686 15.784854035610573 -31.758548965349693 0 0 0
44 15 1 -0.8476 -19.201202631265502 15.428882793004938 -32.66698676655979 0 0 0
85 29 2 0.4238 0.01243936985733339 17.121098639638 -27.160809873337207 0 0 0
86 29 1 -0.8476 -0.006135146543871886 16.121720919251867 -27.130823887672573 0 0 0
87 29 2 0.4238 0.2821803762621636 15.317845508656514 -26.610575986993013 0 0 0
130 44 2 0.4238 -27.93380181098808 20.608878439597376 -30.439272832082906 0 0 0
131 44 1 -0.8476 -28.179147893834173 21.553861287391882 -30.222910365360374 0 0 0
132 44 2 0.4238 -28.590771757323065 22.39064599665066 -30.583959586339223 0 0 0
385 129 2 0.4238 -2.123441256851883 22.81561713993046 -31.082231115410302 0 0 0
386 129 1 -0.8476 -1.8714223780079529 22.208198914144575 -31.83557670920466 0 0 0
387 129 2 0.4238 -2.2271504413199965 21.585605591499895 -32.53259499747461 0 0 0
532 178 2 0.4238 4.11010407281266 20.161128859745897 -29.252121138524085 0 0 0
533 178 1 -0.8476 4.078551561810633 21.1495223711717 -29.103518629726818 0 0 0
534 178 2 0.4238 3.724427175455022 21.872137755414553 -28.50986694729337 0 0 0
181 61 2 0.4238 -31.271257088765523 37.517197179302656 -30.895719759351476 0 0 0
182 61 1 -0.8476 -30.543748354614934 37.98072746407232 -30.389883109002806 0 0 0
183 61 2 0.4238 -29.725778336101335 38.54909360616611 -30.47867709498459 0 0 0
52 18 2 0.4238 30.309908701293132 35.01988504320682 -31.461750866780978 0 0 0
53 18 1 -0.8476 29.71075535552067 34.21925119160392 -31.46091186906706 0 0 0
54 18 2 0.4238 28.81988503259215 33.86940941084557 -31.75067071841132 0 0 0
220 74 2 0.4238 -33.54730009721212 -34.68900208022509 -23.3690881173862 0 0 0
263 88 1 -0.8476 -39.22214145303675 -39.677938902954565 -22.72664731226827 0 0 0
264 88 2 0.4238 -38.76928449181105 -39.281695568088715 -23.52534073709163 0 0 0
221 74 1 -0.8476 -32.59396541666085 -34.75798084014535 -23.66301824094973 0 0 0
222 74 2 0.4238 -31.80980782438189 -34.24261312897262 -24.008694950266538 0 0 0
382 128 2 0.4238 14.896268966203754 -33.69691046224488 -22.522002801740264 0 0 0
383 128 1 -0.8476 14.33502257593617 -34.49766666935711 -22.731268150479238 0 0 0
384 128 2 0.4238 14.030248060168379 -35.10932687246886 -23.461325466777108 0 0 0
442 148 2 0.4238 26.464607740034644 -35.73627573858533 -20.921008482400723 0 0 0
443 148 1 -0.8476 27.04484276345373 -36.51428871502497 -20.68012858268015 0 0 0
444 148 2 0.4238 27.95010964933454 -36.92194705189874 -20.79973602524632 0 0 0
298 100 2 0.4238 38.564415000902876 -37.95803901772704 -20.728245289084526 0 0 0
299 100 1 -0.8476 38.99682139653492 -37.0717529979186 -20.56234833278746 0 0 0
300 100 2 0.4238 38.840791654885734 -36.08473258310676 -20.524337609592706 0 0 0
580 194 2 0.4238 -28.85905311349464 -26.839690079018865 -23.081430942794544 0 0 0
581 194 1 -0.8476 -28.62958515965431 -25.871854479990994 -23.184575072121877 0 0 0
406 136 2 0.4238 28.07636646516356 -32.371448591055696 -23.459485176585094 0 0 0
407 136 1 -0.8476 28.893047771448895 -32.68901281876555 -22.97762979865192 0 0 0
408 136 2 0.4238 29.84574998614914 -32.47444663597678 -22.762410752280665 0 0 0
582 194 2 0.4238 -28.05178197481022 -25.131562890739218 -22.840901917686804 0 0 0
286 96 2 0.4238 -4.582263745352035 -25.07930300640341 -23.141116072124937 0 0 0
287 96 1 -0.8476 -5.221795290127511 -24.464587966835754 -23.602770513635498 0 0 0
288 96 2 0.4238 -6.122277897413519 -24.400940160555262 -24.032979097166002 0 0 0
481 161 2 0.4238 37.08159405866414 -23.198816168695494 -19.984872798918087 0 0 0
482 161 1 -0.8476 36.7197472960636 -22.824575510278688 -19.131051476870397 0 0 0
483 161 2 0.4238 36.00594453050907 -22.922735145711247 -18.43761821225822 0 0 0
213 71 2 0.4238 -12.996871208292688 -11.158597185180877 -22.159829816665695 0 0 0
214 72 2 0.4238 -11.807041253439285 -15.679054215614908 -18.658915432978848 0 0 0
215 72 1 -0.8476 -10.986863369224745 -15.276296871667748 -18.252596887817557 0 0 0
574 192 2 0.4238 1.956066717434463 -11.483232493815446 -18.419958046453154 0 0 0
211 71 2 0.4238 -11.965069184496357 -9.563277042938063 -22.027249191925808 0 0 0
212 71 1 -0.8476 -12.224425292257784 -10.526194353797486 -22.101577260743063 0 0 0
354 118 2 0.4238 -0.3327626286883882 -4.274289894625937 -24.032670874827105 0 0 0
283 95 2 0.4238 34.68386060954404 -5.5818334645931404 -25.273941739478015 0 0 0
284 95 1 -0.8476 35.055161786250615 -4.791417908368386 -24.786726505054645 0 0 0
285 95 2 0.4238 34.9450863535559 -3.810998291781076 -24.623447084611918 0 0 0
184 62 2 0.4238 -15.015380104072277 2.855540727289478 -20.290221030229358 0 0 0
185 62 1 -0.8476 -14.08929101822875 2.488325606708422 -20.376893172802035 0 0 0
186 62 2 0.4238 -13.148672714221322 2.706273234771538 -20.637153489024282 0 0 0
352 118 2 0.4238 -0.8938348128456501 -2.8021208394693073 -22.962551408684895 0 0 0
353 118 1 -0.8476 -0.3733702438077853 -3.580476805873058 -23.313661963837987 0 0 0
28 10 2 0.4238 36.56894597573737 -1.1288613823686744 -23.96019419614492 0 0 0
29 10 1 -0.8476 37.059206659430785 -1.4464380336367653 -23.148535688770167 0 0 0
30 10 2 0.4238 37.76806392470585 -1.212978781765624 -22.482940053421814 0 0 0
31 11 2 0.4238 -36.548909650787614 8.841032534271541 -21.432329800879547 0 0 0
32 11 1 -0.8476 -35.75238594009646 8.412556598176335 -21.85889556426677 0 0 0
33 11 2 0.4238 -34.89535803746368 8.588879226986402 -22.34305762317951 0 0 0
430 144 2 0.4238 19.927277186701005 9.930437336008483 -21.537160558649447 0 0 0
431 144 1 -0.8476 20.822071894088207 9.604375229975764 -21.842162090844557 0 0 0
432 144 2 0.4238 21.79776553293151 9.82050023840703 -21.8783739461346 0 0 0
297 99 2 0.4238 29.63294791201927 7.906740261388537 -25.070297847239672 0 0 0
357 119 2 0.4238 26.59153540091678 5.7713921212823625 -24.941226229709212 0 0 0
454 152 2 0.4238 -19.750986921158496 15.631995904890307 -22.991830339627345 0 0 0
455 152 1 -0.8476 -19.849797915923862 15.170207135606724 -23.87329929533539 0 0 0
456 152 2 0.4238 -20.500034230994114 14.731719798264413 -24.493719301594503 0 0 0
94 32 2 0.4238 0.85459535787107 15.126400628808126 -21.01448878637569 0 0 0
95 32 1 -0.8476 1.7784648958194231 15.411209283770036 -20.75885407255559 0 0 0
96 32 2 0.4238 2.3533581411407116 16.19635201546813 -20.52853246706044 0 0 0
223 75 2 0.4238 4.926886901670965 13.352968285117024 -22.81852522838645 0 0 0
224 75 1 -0.8476 5.823459864740185 13.777949071284782 -22.94321786362011 0 0 0
225 75 2 0.4238 6.502059551912735 14.062074712980884 -23.620546793249094 0 0 0
268 90 2 0.4238 24.899321602423097 15.791784681685803 -21.947933045288163 0 0 0
269 90 1 -0.8476 25.890678964102673 15.693289653974242 -22.034589325844216 0 0 0
270 90 2 0.4238 26.75195672503539 16.191124932738845 -22.13637364856803 0 0 0
313 105 2 0.4238 -13.06993242143297 21.067035010355113 -20.507240230173085 0 0 0
314 105 1 -0.8476 -12.102723393971509 21.27761708410953 -20.365247669063905 0 0 0
315 105 2 0.4238 -11.422551226002154 22.010602984225137 -20.355404561636316 0 0 0
64 22 2 0.4238 30.541384038300123 23.560513949703974 -20.292261622744444 0 0 0
65 22 1 -0.8476 31.223614305537048 23.465935349329982 -21.01725593363049 0 0 0
66 22 2 0.4238 32.11438581894243 23.783174537882743 -21.342655384711957 0 0 0
1 1 2 0.4238 -16.145046905266184 26.885580925022165 -19.935859821368453 0 0 0
2 1 1 -0.8476 -15.827173970437434 26.29181914082081 -20.67505109629354 0 0 0
3 1 2 0.4238 -15.017776119602951 25.943099816594554 -21.147564954913538 0 0 0
163 55 2 0.4238 8.580812574932635 25.610022131118406 -23.819044458665154 0 0 0
164 55 1 -0.8476 9.263593357158777 26.30385577184955 -23.59012245794782 0 0 0
165 55 2 0.4238 9.406096320510835 27.27748158308638 -23.411950968248853 0 0 0
175 59 2 0.4238 35.18771891125988 29.911029073990868 -20.465524185175962 0 0 0
176 59 1 -0.8476 36.18720657834404 29.936962340023975 -20.484282358314843 0 0 0
177 59 2 0.4238 36.98530460811097 30.539260880623942 -20.500877462579297 0 0 0
262 88 2 0.4238 -39.58098334111683 39.47676526342505 -22.33078439025719 0 -1 0
560 187 1 -0.8476 -39.562764664474116 35.82753645819238 -21.52740640220936 0 0 0
561 187 2 0.4238 -39.27602545206086 36.37690069123506 -22.312249671996582 0 0 0
146 49 1 -0.8476 -24.18460957543228 36.12943659188343 -18.234686793407132 0 0 0
147 49 2 0.4238 -23.219952596051503 36.36340814436216 -18.355904033826558 0 0 0
349 117 2 0.4238 -13.660746643369633 36.554442008082255 -23.61024815877418 0 0 0
350 117 1 -0.8476 -12.721028260495727 36.822670124604414 -23.82234021047774 0 0 0
351 117 2 0.4238 -12.109866788249462 37.60096849341462 -23.96632874669294 0 0 0
559 187 2 0.4238 39.72341606591246 35.703894037971835 -20.83807730645714 -1 0 0
361 121 2 0.4238 21.335131021615105 -36.4554098828163 -16.257954541811515 0 0 0
362 121 1 -0.8476 20.866628133515636 -37.12353406815578 -16.835981458837804 0 0 0
363 121 2 0.4238 20.90818315773848 -37.620603656106866 -17.702696175055443 0 0 0
319 107 2 0.4238 -4.701173107898894 -30.486801080971123 -12.183860310641297 0 0 0
320 107 1 -0.8476 -3.903328282327877 -29.885798466638736 -12.136537040729028 0 0 0
169 57 2 0.4238 1.5319528163715224 -28.81739775050682 -15.01262934812744 0 0 0
170 57 1 -0.8476 2.4196340894207458 -28.360262858928063 -15.067852969694545 0 0 0
171 57 2 0.4238 2.8833834561496734 -27.47546623228024 -15.0223463883749 0 0 0
321 107 2 0.4238 -3.43866900416925 -29.192219066350006 -11.586047471955489 0 0 0
475 159 2 0.4238 32.21877198595027 -28.283130117609605 -13.695282600567388 0 0 0
476 159 1 -0.8476 32.954887194040765 -28.396379953811458 -14.362597275228556 0 0 0
477 159 2 0.4238 33.70861208509953 -28.987337551377163 -14.65011649387327 0 0 0
547 183 2 0.4238 4.5239523002394 -21.3318212229201 -15.251871700063854 0 0 0
548 183 1 -0.8476 5.5239153857861565 -21.33869063934586 -15.246710434542571 0 0 0
549 183 2 0.4238 6.341527599553521 -20.762923409895624 -15.24803708516731 0 0 0
216 72 2 0.4238 -10.652014083323683 -14.600340448095082 -17.596122772734066 0 0 0
403 135 2 0.4238 -4.049310812342061 -17.895116208730325 -11.488906789390319 0 0 0
575 192 1 -0.8476 1.6661168674774949 -12.0140446008426 -17.62361164472629 0 0 0
576 192 2 0.4238 0.8738094316066815 -12.348094276405073 -17.113063766528096 0 0 0
496 166 2 0.4238 29.244098305508103 -11.032153210068241 -12.746916868960822 0 0 0
331 111 2 0.4238 37.257545123491 -14.663941340072023 -14.925026091502984 0 0 0
332 111 1 -0.8476 38.22742659794327 -14.628638901649492 -15.166031617073898 0 0 0
333 111 2 0.4238 39.00760201409927 -14.020646645914946 -15.31324279737244 0 0 0
118 40 2 0.4238 -21.254427789708373 -5.709401878697243 -15.462298193378524 0 0 0
119 40 1 -0.8476 -20.44442324891221 -5.576185534117348 -14.891206213548333 0 0 0
120 40 2 0.4238 -19.976416675303952 -4.938880516742594 -14.27898766066001 0 0 0
461 154 1 -0.8476 32.692059050262785 -7.508789338486437 -15.498495434726852 0 0 0
462 154 2 0.4238 31.993635283961204 -8.040600878817575 -15.019558985030246 0 0 0
497 166 1 -0.8476 30.231179202797698 -10.883851293988977 -12.686271639196327 0 0 0
498 166 2 0.4238 30.942275366312213 -10.27283179118838 -12.338425684721509 0 0 0
460 154 2 0.4238 33.07221391028057 -7.286744394714293 -16.396369771897753 0 0 0
568 190 2 0.4238 -39.032988021410155 15.077761571363562 -14.667780087155686 0 0 0
569 190 1 -0.8476 -38.36383709025819 14.459840275930855 -15.080587916525744 0 0 0
570 190 2 0.4238 -37.538383407756534 14.412812178838552 -15.643094779364395 0 0 0
151 51 2 0.4238 12.819543388431615 17.353945546347774 -14.282803372297838 0 0 0
152 51 1 -0.8476 13.267345346669355 16.482495508819845 -14.482923931688958 0 0 0
153 51 2 0.4238 14.127896229918129 16.054466020969024 -14.759044067648237 0 0 0
598 200 2 0.4238 24.506430207965156 14.082889404478465 -12.2259587365649 0 0 0
599 200 1 -0.8476 24.702665334337684 14.194951748949348 -11.251826401546065 0 0 0
145 49 2 0.4238 -25.073038492638997 36.4727933522665 -17.93005555047538 0 0 0
233 78 1 -0.8476 31.764371720809354 -35.613792248457635 -4.0470936797368715 0 0 0
234 78 2 0.4238 32.54454385714405 -35.747609540509785 -4.658177769406236 0 0 0
589 197 2 0.4238 -7.877681962747301 -15.38501491970834 -5.578771926572185 0 0 0
590 197 1 -0.8476 -7.17750589396349 -15.30757999756929 -6.288530551412888 0 0 0
591 197 2 0.4238 -6.809833311480677 -14.718178876614745 -7.007851470975358 0 0 0
404 135 1 -0.8476 -3.340213127158237 -17.5952896082742 -10.850718351289265 0 0 0
405 135 2 0.4238 -3.152066387217553 -17.018215330134755 -10.055994829319655 0 0 0
58 20 2 0.4238 36.82656979355259 -12.963763716604113 -9.925507927813948 0 0 0
59 20 1 -0.8476 37.48798980257456 -12.778361300608472 -9.19876896793333 0 0 0
60 20 2 0.4238 38.193449811778734 -12.143756308895608 -8.883171004506742 0 0 0
337 113 2 0.4238 -10.570375849076177 -9.387110970838153 -4.7169918419531 0 0 0
338 113 1 -0.8476 -9.818719216715026 -9.777045756389631 -5.24893466786996 0 0 0
339 113 2 0.4238 -8.87188310639787 -10.095983254643752 -5.206748805082373 0 0 0
514 172 2 0.4238 26.991713696591518 0.6417902341155877 -4.192176405430046 0 0 0
241 81 2 0.4238 -18.894226846976995 6.74785100888376 -4.554245406130905 0 0 0
242 81 1 -0.8476 -17.934925731682384 7.028587332956358 -4.584716483248684 0 0 0
243 81 2 0.4238 -17.318429370308074 7.813745362129205 -4.643525498288047 0 0 0
109 37 2 0.4238 5.502242769280398 4.913552751259131 -4.804995487049995 0 0 0
110 37 1 -0.8476 6.166389643446078 4.36489100450027 -4.2971773924733325 0 0 0
115 39 2 0.4238 -12.835254551480176 14.14711457891549 -9.871558861999342 0 0 0
116 39 1 -0.8476 -11.87646229636775 14.382370919473237 -9.71227337689852 0 0 0
117 39 2 0.4238 -11.027962523968958 14.679312375171971 -10.15030682623654 0 0 0
358 120 2 0.4238 -1.0268705044872481 11.813650116075745 -5.073572889341908 0 0 0
359 120 1 -0.8476 -0.1946769918055121 11.259240290233569 -5.064423984484956 0 0 0
360 120 2 0.4238 0.7380745713880998 11.19766072119828 -4.709203105805856 0 0 0
49 17 2 0.4238 17.00158216972734 13.76458748227659 -6.755217576375946 0 0 0
50 17 1 -0.8476 17.65993839587954 14.504390033239215 -6.6164398221218015 0 0 0
51 17 2 0.4238 17.847767781025155 15.340264329388463 -6.100655295671976 0 0 0
600 200 2 0.4238 24.70553067696728 14.84502611933053 -10.491961612654398 0 0 0
271 91 2 0.4238 -20.244466123071494 20.15444069363227 -4.138157819786095 0 0 0
272 91 1 -0.8476 -19.897656889162903 21.07838002192192 -4.299587287094302 0 0 0
273 91 2 0.4238 -20.143280092397482 21.997199736378036 -4.608519268235471 0 0 0
202 68 2 0.4238 -35.60176777782449 28.47702998478998 -6.596959522778501 0 0 0
203 68 1 -0.8476 -36.58145815550383 28.641693873860522 -6.482536764908068 0 0 0
204 68 2 0.4238 -37.465981951885446 28.644349353706286 -6.949023631468846 0 0 0
427 143 2 0.4238 -20.24482814334809 28.410136972154167 -8.155590449433427 0 0 0
428 143 1 -0.8476 -20.860853325305325 28.455353741606654 -7.369162818335159 0 0 0
429 143 2 0.4238 -20.906251980076583 28.56903648103463 -6.376683805200189 0 0 0
505 169 2 0.4238 20.8680533872589 28.48849837205747 -7.307084618204825 0 0 0
506 169 1 -0.8476 21.733057272818584 28.27696466178427 -6.852088170543192 0 0 0
507 169 2 0.4238 22.576817262928493 28.669138927530042 -6.48566243592738 0 0 0
121 41 2 0.4238 33.17081026892439 30.49010777195295 -10.750676523880282 0 0 0
122 41 1 -0.8476 33.84680914971252 29.75713791477543 -10.67464559831467 0 0 0
123 41 2 0.4238 34.68820064901179 29.470631284839566 -10.216416735712173 0 0 0
364 122 2 0.4238 -19.801395935288927 39.23264890159446 -10.30115473236241 0 0 0
365 122 1 -0.8476 -19.862544673721267 39.28295422762217 -9.304294558636235 0 0 0
366 122 2 0.4238 -19.33303646086922 39.2907834076118 -8.456026233708815 0 0 0
259 87 2 0.4238 15.470031331247137 35.143141559325244 -8.815911261866553 0 0 0
260 87 1 -0.8476 16.469902948326865 35.15859947813462 -8.811692007850066 0 0 0
261 87 2 0.4238 17.27444391028703 35.75249595669034 -8.811236047787151 0 0 0
592 198 2 0.4238 15.214447920183662 36.61856087764529 -5.196774715860675 0 0 0
593 198 1 -0.8476 15.265233190174088 36.18411002410026 -4.297512066683031 0 0 0
594 198 2 0.4238 14.807898711664514 35.5513978265832 -3.672596196751923 0 0 0
511 171 2 0.4238 38.25981993163286 34.60237555180578 -10.690256070341526 0 0 0
512 171 1 -0.8476 38.37351968716737 33.61366241891509 -10.59269221206975 0 0 0
513 171 2 0.4238 38.36761654913281 32.85427647996703 -9.942079006469399 0 0 0
391 131 2 0.4238 -25.101033114807976 -39.92385909976553 -0.7676877187666056 0 1 0
502 168 2 0.4238 -18.138460480772874 -33.15213087513752 1.7390063591505136 0 0 0
503 168 1 -0.8476 -17.16435798732377 -32.934920777484415 1.8018084748295489 0 0 0
232 78 2 0.4238 31.48766498618255 -35.509056778021616 -3.0918639355157653 0 0 0
504 168 2 0.4238 -16.3957944433897 -32.50015169850094 1.3324628436496888 0 0 0
55 19 2 0.4238 8.154855351055982 -26.144628706584623 -0.08889593743969199 0 0 0
56 19 1 -0.8476 8.37362133228676 -27.119718796111314 -0.052279509938287616 0 0 0
57 19 2 0.4238 8.756157579578836 -27.887595574242418 -0.5661186557095473 0 0 0
154 52 2 0.4238 -1.230755725478299 -23.629032393011666 -1.2556283843973906 0 0 0
155 52 1 -0.8476 -0.2618650326365942 -23.81218844484216 -1.0891811374913922 0 0 0
156 52 2 0.4238 0.6601776880606327 -23.429457564103764 -1.147092179190858 0 0 0
416 139 1 -0.8476 11.665791705910772 -18.208659717904684 1.1862581849696605 0 0 0
415 139 2 0.4238 10.741020502452788 -18.140118009124496 0.8119584983382618 0 0 0
417 139 2 0.4238 12.404037515420166 -17.69991464003312 1.6291701006995547 0 0 0
573 191 2 0.4238 21.655901881558446 -11.28104675720194 1.2314172584503205 0 0 0
100 34 2 0.4238 32.01592454774521 -12.575685979319248 -2.486575604116593 0 0 0
101 34 1 -0.8476 32.23234749306505 -12.143602435321432 -1.6110957815362155 0 0 0
102 34 2 0.4238 31.909506635862467 -11.49449274669265 -0.9223071436644837 0 0 0
158 53 1 -0.8476 37.34364591738633 -14.311520954931433 3.264631026892598 0 0 0
159 53 2 0.4238 37.708209438974336 -13.493992723628551 2.8188279040206465 0 0 0
571 191 2 0.4238 22.212676723995443 -10.012182635418485 -0.07519094980960284 0 0 0
572 191 1 -0.8476 21.816426743406524 -10.821870629838557 0.3576962232219863 0 0 0
515 172 1 -0.8476 27.190352179556434 0.4939195006072712 -3.2233229597236743 0 0 0
516 172 2 0.4238 26.784289906304274 0.4059259394881778 -2.313724170116345 0 0 0
379 127 2 0.4238 -5.746506844144696 3.802484518769491 1.209956180999816 0 0 0
380 127 1 -0.8476 -5.4477622287318646 4.6262778567447675 0.7281717986570586 0 0 0
381 127 2 0.4238 -5.2837438281455515 5.608410145967563 0.8204405655684484 0 0 0
111 37 2 0.4238 6.581709327826955 4.215189725678681 -3.3999045903126968 0 0 0
238 80 2 0.4238 12.500007806624769 5.802517560677753 1.6087799587071296 0 0 0
239 80 1 -0.8476 13.500006197932262 5.8038828945144045 1.6076166677106878 0 0 0
240 80 2 0.4238 14.312831404505133 6.386389652419787 1.6069420073687735 0 0 0
274 92 2 0.4238 30.287069888491587 7.424706364998821 -1.156685299943294 0 0 0
275 92 1 -0.8476 30.423031737933297 7.178529570525941 -0.19704403292762043 0 0 0
276 92 2 0.4238 30.724545801183666 7.5160798815516365 0.6946669358290496 0 0 0
34 12 2 0.4238 -25.96782816046344 17.065252693037433 -0.5667092102950384 0 0 0
562 188 2 0.4238 -25.70970551344699 13.550858339137452 2.397576029829482 0 0 0
563 188 1 -0.8476 -26.10324874163435 12.824847004455714 2.9615186416806467 0 0 0
564 188 2 0.4238 -26.85197454938 12.165878074573842 3.0334144612963376 0 0 0
35 12 1 -0.8476 -25.16996813075161 16.47155614710963 -0.6713217541969556 0 0 0
36 12 2 0.4238 -24.25638850091715 16.399389793918697 -1.0715262919409803 0 0 0
466 156 2 0.4238 8.279891227218299 17.973279657964035 2.0524337151431995 0 0 0
133 45 2 0.4238 8.296361662031785 18.32130067534895 -2.4244090902035027 0 0 0
134 45 1 -0.8476 8.5691036935149 18.915169784088192 -3.1813313226341045 0 0 0
135 45 2 0.4238 9.212767611784503 19.625011475749858 -3.4673748992251117 0 0 0
467 156 1 -0.8476 7.931634727933881 18.91004330049956 2.0869487659144386 0 0 0
468 156 2 0.4238 7.496245785565523 19.636323284039307 1.555015265385364 0 0 0
73 25 2 0.4238 26.21640958264009 23.041218399593877 1.9720931167978581 0 0 0
74 25 1 -0.8476 27.194743220264318 22.874786875157888 1.8489515674862693 0 0 0
75 25 2 0.4238 28.087581571392807 23.312623538178133 1.7434142286828707 0 0 0
584 195 1 -0.8476 -39.80120445526398 31.52228410592893 -0.5852360469229377 0 0 0
585 195 2 0.4238 -39.29871716023922 30.657843747177868 -0.6010087801449715 0 0 0
583 195 2 0.4238 39.29829835313058 31.93770145020525 -0.4566544075449674 -1 0 0
463 155 2 0.4238 -30.902220262080725 35.04320648042947 0.9032165757606221 0 0 0
464 155 1 -0.8476 -30.161167558004152 34.753991778189224 0.29724978971630345 0 0 0
465 155 2 0.4238 -29.66400132310239 34.973472192964024 -0.5421866146742483 0 0 0
392 131 1 -0.8476 -24.47162415594672 39.53357676949647 -1.3239866730544112 0 0 0
393 131 2 0.4238 -23.589766116956437 39.54040506924793 -1.795451590098053 0 0 0
19 7 2 0.4238 34.6186406726586 34.09675376264303 3.5175352167915825 0 0 0
423 141 2 0.4238 -9.853559996984139 -35.594677183550495 10.873243235079224 0 0 0
208 70 2 0.4238 6.597546592045897 -36.57629888126706 10.508368454925533 0 0 0
209 70 1 -0.8476 7.597380228761653 -36.5882491358565 10.522148524119546 0 0 0
210 70 2 0.4238 8.417723789052951 -36.01665205745843 10.539829521479408 0 0 0
17 6 1 -0.8476 25.286679149948085 -39.555971644191416 8.321403286345381 0 0 0
18 6 2 0.4238 24.84873476816267 -39.38811715581888 7.438210791014926 0 0 0
16 6 2 0.4238 25.69739005573946 -39.11952269905319 9.121921162567869 0 0 0
394 132 2 0.4238 -17.816916374993873 -26.363172115433716 6.80697628877979 0 0 0
395 132 1 -0.8476 -17.039194651697795 -26.706376764381414 7.3336255933972625 0 0 0
396 132 2 0.4238 -16.07026708695737 -26.567407219436603 7.538237993989873 0 0 0
493 165 2 0.4238 -17.04774654685822 -22.70330895490092 6.152274189005112 0 0 0
494 165 1 -0.8476 -16.116188436736874 -23.066895925146724 6.154274822560066 0 0 0
495 165 2 0.4238 -15.377100560784069 -23.4141895005816 5.577095752692247 0 0 0
478 160 2 0.4238 14.823292998715521 -22.440687821406012 4.6965473618850115 0 0 0
479 160 1 -0.8476 15.460916055711532 -23.051903780815593 4.2276637002480495 0 0 0
480 160 2 0.4238 16.420805915123477 -23.320815161755494 4.148306774832811 0 0 0
106 36 2 0.4238 33.846448342538245 -20.981256396153793 10.238337299607734 0 0 0
107 36 1 -0.8476 34.70545336229097 -21.45652958971057 10.04800662019433 0 0 0
108 36 2 0.4238 35.700862013655104 -21.362397448081943 10.030681744608025 0 0 0
499 167 2 0.4238 -10.1024886649465 -14.828858820425626 10.64625153875143 0 0 0
500 167 1 -0.8476 -9.131276375491925 -14.953551439102172 10.849225526395145 0 0 0
157 53 2 0.4238 36.55625459820141 -14.690479996403733 3.750845954017046 0 0 0
70 24 2 0.4238 -13.465461392819169 -8.057129250082108 9.595409377799724 0 0 0
71 24 1 -0.8476 -12.7719778067531 -8.75157001397328 9.403491318974634 0 0 0
72 24 2 0.4238 -12.005305006991648 -8.993180455683401 8.808649653340131 0 0 0
199 67 2 0.4238 3.428386313059436 0.36872427305529765 9.954838665935775 0 0 0
200 67 1 -0.8476 3.277220728510522 -0.4784499439673653 10.464195919795994 0 0 0
520 174 2 0.4238 -33.56171624510106 10.9026319662487 8.336806536844682 0 0 0
521 174 1 -0.8476 -32.81485515409701 10.269144472037565 8.539024501977192 0 0 0
522 174 2 0.4238 -31.95202196400904 10.15956813981753 9.03249315155088 0 0 0
370 124 2 0.4238 -24.765125713236635 8.347777082940874 6.228751799511542 0 0 0
371 124 1 -0.8476 -24.173534478189445 7.613281983489652 6.561222489193322 0 0 0
372 124 2 0.4238 -23.244168048755625 7.2447081996519485 6.540466759352161 0 0 0
97 33 2 0.4238 3.2528931916084813 4.386640537450942 4.524616805963887 0 0 0
98 33 1 -0.8476 4.2214432757267755 4.528452670084395 4.729067420030946 0 0 0
99 33 2 0.4238 4.907059589926553 5.2084411916069495 4.988962158171084 0 0 0
378 126 2 0.4238 25.742164880713293 8.632890919134784 10.510813850823922 0 0 0