LAMMPS data file via write_data, version 27 Jun 2024, timestep = 0, units = real

60 atoms
2 atom types
40 bonds
1 bond types
20 angles
1 angle types

-12.5 12.5 xlo xhi
-12.5 12.5 ylo yhi
-12.5 12.5 zlo zhi

Atom Type Labels

1 O
2 H

Bond Type Labels

1 O-H

Angle Type Labels

1 H-O-H

Masses

1 15.9994
2 1.00784

Pair Coeffs # lj/cut/coul/long

1 0.15535 3.166
2 0 1

Bond Coeffs # harmonic

1 0 1

Angle Coeffs # harmonic

1 0 109.47

Atoms # full

7 3 2 0.4238 -7.036094662517267 -11.459258258736817 -10.007099056179122 0 0 0
8 3 1 -0.8476 -6.044717301708664 -11.553080491454862 -10.098577562528806 0 0 0
9 3 2 0.4238 -5.181463486526314 -11.051162042790146 -10.15215102681267 0 0 0
11 4 1 -0.8476 10.567307128434507 -7.779568978417401 -12.405220207389634 0 0 1
15 5 2 0.4238 -9.682630234875631 0.5392064210577655 -12.48958066533255 0 0 1
31 11 2 0.4238 -11.983009860957921 2.9188002019011856 -6.391139949388212 0 0 0
32 11 1 -0.8476 -11.186486150266761 2.4903242658059783 -6.817705712775433 0 0 0
33 11 2 0.4238 -10.329458247633987 2.6666468946160453 -7.301867771688175 0 0 0
28 10 2 0.4238 11.040646347432908 -0.2607142953794723 -8.012103168609379 0 0 0
29 10 1 -0.8476 11.530907031126327 -0.5782909466475632 -7.200444661234628 0 0 0
30 10 2 0.4238 12.239764296401392 -0.34483169477642195 -6.534849025886277 0 0 0
1 1 2 0.4238 -5.376505927175096 8.753799701963565 -5.782875767236559 0 0 0
2 1 1 -0.8476 -5.058632992346344 8.160037917762208 -6.522067042161648 0 0 0
3 1 2 0.4238 -4.249235141511862 7.811318593535956 -6.994580900781644 0 0 0
43 15 2 0.4238 -6.278832184148719 5.261998327690022 -9.394431986115716 0 0 0
44 15 1 -0.8476 -6.0596855762115345 4.906027085084387 -10.302869787325807 0 0 0
45 15 2 0.4238 -5.581732769258797 4.181323279844534 -10.799221380059352 0 0 0
4 2 2 0.4238 2.6578526294117357 12.37146310786013 -10.43078937728802 0 0 0
5 2 1 -0.8476 2.766630276395147 11.39050307325144 -10.591677021366955 0 0 0
6 2 2 0.4238 2.480520101417416 10.623576237642876 -11.166101595362443 0 0 0
22 8 2 0.4238 -2.972970002716645 6.18717298694735 -11.828666326752355 0 0 0
23 8 1 -0.8476 -2.6680351942104896 6.196721913486542 -10.876340972389013 0 0 0
24 8 2 0.4238 -1.8993776880001398 6.400958126900945 -10.270162284303659 0 0 0
52 18 2 0.4238 9.950616201637601 11.390843332743916 -9.765778616846543 0 0 0
53 18 1 -0.8476 9.351462855865142 10.590209481141011 -9.764939619132623 0 0 0
54 18 2 0.4238 8.46059253293662 10.240367700382668 -10.054698468476884 0 0 0
55 19 2 0.4238 2.360459999136454 -7.547308418119584 0.07319229451786585 0 0 0
56 19 1 -0.8476 2.5792259803672315 -8.522398507646274 0.10980872201927022 0 0 0
57 19 2 0.4238 2.961762227659309 -9.29027528577738 -0.4040304237519895 0 0 0
16 6 2 0.4238 8.319039145065453 -12.063278397184478 3.4199026700843285 0 0 0
17 6 1 -0.8476 7.908328239274079 -12.499727342322698 2.6193847938618395 0 0 0
18 6 2 0.4238 7.470383857488661 -12.331872853950166 1.7361922985313856 0 0 0
58 20 2 0.4238 11.043484304240824 -4.281582579370986 -3.5071344506724023 0 0 0
49 17 2 0.4238 4.968203590290834 3.7708028928193627 -2.2928125839620512 0 0 0
59 20 1 -0.8476 11.704904313262789 -4.096180163375345 -2.7803954907917836 0 0 0
60 20 2 0.4238 12.410364322466966 -3.461575171662481 -2.4647975273651963 0 0 0
34 12 2 0.4238 -8.689994145599812 5.621540506064031 -0.037435672362481354 0 0 0
35 12 1 -0.8476 -7.89213411588798 5.027843960136226 -0.14204821626439856 0 0 0
36 12 2 0.4238 -6.978554486053524 4.955677606945293 -0.5422527540084232 0 0 0
19 7 2 0.4238 10.79383750175929 10.629860458053415 0.4417649790403838 0 0 0
20 7 1 -0.8476 10.635945619004069 10.72387285063653 1.424735895904565 0 0 0
21 7 2 0.4238 11.058584839553868 10.646575743023176 2.3277312674430455 0 0 0
50 17 1 -0.8476 5.626559816443036 4.510605443781987 -2.154034829707907 0 0 0
51 17 2 0.4238 5.814389201588648 5.346479739931236 -1.6382503032580817 0 0 0
40 14 2 0.4238 -6.2402915514828905 -7.990509926502284 11.191755486396708 0 0 0
41 14 1 -0.8476 -5.5109806603477445 -8.47303242639287 10.706701199567904 0 0 0
42 14 2 0.4238 -4.658583638168301 -8.983728579221982 10.818987221304406 0 0 0
10 4 2 0.4238 11.2068935050433 -8.494057399957965 12.311168152614924 0 0 0
12 4 2 0.4238 9.916561101808185 -7.093888670040741 12.268633325288103 0 0 0
37 13 2 0.4238 6.017182934304601 -4.926876697196134 10.96792301890332 0 0 0
38 13 1 -0.8476 6.706429302133323 -4.414614048474301 11.480296342915615 0 0 0
13 5 2 0.4238 -11.559251459439219 0.2336217285631486 12.400191525822846 0 0 0
14 5 1 -0.8476 -10.570704787048003 0.08617958488594482 12.432382996309963 0 0 0
46 16 2 0.4238 -2.610556423424295 0.939211423282236 9.533101076624257 0 0 0
47 16 1 -0.8476 -1.6309596566042084 1.0461017107407917 9.703291090675199 0 0 0
48 16 2 0.4238 -0.8231248091786956 1.5952619605727894 9.489222704635349 0 0 0
25 9 2 0.4238 12.05754804525111 2.920473886272313 6.632931788177044 0 0 0
26 9 1 -0.8476 11.91954043560082 3.76566175480063 6.116587555546163 0 0 0
39 13 2 0.4238 7.048634991994631 -3.499340988262671 11.692828424469516 0 0 0
27 9 2 0.4238 12.347722558558976 4.4130037380778235 5.486026043179569 0 0 0

Velocities

7 0 0 0
8 0 0 0
9 0 0 0
11 0 0 0
15 0 0 0
31 0 0 0
32 0 0 0
33 0 0 0
28 0 0 0
29 0 0 0
30 0 0 0
1 0 0 0
2 0 0 0
3 0 0 0
43 0 0 0
44 0 0 0
45 0 0 0
4 0 0 0
5 0 0 0
6 0 0 0
22 0 0 0
23 0 0 0
24 0 0 0
52 0 0 0
53 0 0 0
54 0 0 0
55 0 0 0
56 0 0 0
57 0 0 0
16 0 0 0
17 0 0 0
18 0 0 0
58 0 0 0
49 0 0 0
59 0 0 0
60 0 0 0
34 0 0 0
35 0 0 0
36 0 0 0
19 0 0 0
20 0 0 0
21 0 0 0
50 0 0 0
51 0 0 0
40 0 0 0
41 0 0 0
42 0 0 0
10 0 0 0
12 0 0 0
37 0 0 0
38 0 0 0
13 0 0 0
14 0 0 0
46 0 0 0
47 0 0 0
48 0 0 0
25 0 0 0
26 0 0 0
39 0 0 0
27 0 0 0

Bonds

1 1 7 8
2 1 8 9
3 1 11 12
4 1 31 32
5 1 32 33
6 1 28 29
7 1 29 30
8 1 1 2
9 1 2 3
10 1 43 44
11 1 44 45
12 1 4 5
13 1 5 6
14 1 22 23
15 1 23 24
16 1 52 53
17 1 53 54
18 1 55 56
19 1 56 57
20 1 16 17
21 1 17 18
22 1 58 59
23 1 49 50
24 1 59 60
25 1 34 35
26 1 35 36
27 1 19 20
28 1 20 21
29 1 50 51
30 1 40 41
31 1 41 42
32 1 10 11
33 1 37 38
34 1 38 39
35 1 13 14
36 1 14 15
37 1 46 47
38 1 47 48
39 1 25 26
40 1 26 27

Angles

1 1 7 8 9
2 1 10 11 12
3 1 31 32 33
4 1 28 29 30
5 1 1 2 3
6 1 43 44 45
7 1 4 5 6
8 1 22 23 24
9 1 52 53 54
10 1 55 56 57
11 1 16 17 18
12 1 58 59 60
13 1 34 35 36
14 1 19 20 21
15 1 49 50 51
16 1 40 41 42
17 1 37 38 39
18 1 13 14 15
19 1 46 47 48
20 1 25 26 27
