LAMMPS data file via write_data, version 27 Jun 2024, timestep = 25000, units = real

690 atoms
2 atom types
460 bonds
1 bond types
230 angles
1 angle types

-60 60 xlo xhi
-60 60 ylo yhi
-60 60 zlo zhi

Atom Type Labels

1 O
2 H

Bond Type Labels

1 O-H

Angle Type Labels

1 H-O-H

Masses

1 15.9994
2 1.00784

Pair Coeffs # lj/cut/coul/long

1 0.15535 3.166
2 0 1

Bond Coeffs # harmonic

1 0 1

Angle Coeffs # harmonic

1 0 109.47

Atoms # full

32439 10813 2 0.4238 53.37773041186051 30.267167595488466 -35.703199388858415 0 0 0
32438 10813 1 -0.8476 52.52910617977206 30.358958690842172 -36.22417031140427 0 0 0
32437 10813 2 0.4238 51.54931084941035 30.547243664527926 -36.15671751838925 0 0 0
32232 10744 2 0.4238 -28.872754269724485 -41.69757959393448 15.15548340037916 0 0 0
32231 10744 1 -0.8476 -29.784255418653746 -42.08831058157969 15.283913713805118 0 0 0
32230 10744 2 0.4238 -30.406844694552547 -42.4993530849651 15.949816600077932 0 0 0
32379 10793 2 0.4238 46.88598898163149 54.545394616170746 -41.48065724166979 0 0 0
32378 10793 1 -0.8476 46.532718889943666 53.76746617789536 -42.00029844659252 0 0 0
32377 10793 2 0.4238 46.67835768667319 53.193926673290086 -42.80642609004877 0 0 0
31830 10610 2 0.4238 20.912664580963064 24.02670717328677 29.364091617778897 0 0 0
31829 10610 1 -0.8476 19.93320893852998 24.189299326226802 29.244802762806767 0 0 0
31828 10610 2 0.4238 19.240426533567888 24.88743064826308 29.06406760693827 0 0 0
32205 10735 2 0.4238 9.214457620145517 58.66212621303272 -27.197992473283936 0 0 0
32204 10735 1 -0.8476 9.889920199297187 58.08287572884191 -27.654302209474967 0 0 0
32203 10735 2 0.4238 10.652585663055481 58.07710664672376 -28.3010696391449 0 0 0
32511 10837 2 0.4238 -54.0842468941152 -0.5970329348874848 21.183744572956485 0 0 0
32510 10837 1 -0.8476 -53.24623105234281 -0.8425942021885208 21.67101093497243 0 0 0
31185 10395 2 0.4238 -53.857892359485405 -10.915891055452269 -51.03385430772697 0 0 0
31184 10395 1 -0.8476 -53.81467944467955 -10.994237063783043 -52.029843234163835 0 0 0
31183 10395 2 0.4238 -54.357426638063345 -11.118257266379421 -52.860532389878514 0 0 0
32278 10760 2 0.4238 -29.724588527382444 -13.77193735212418 -9.616276342044966 0 0 0
32279 10760 1 -0.8476 -30.10263387867231 -14.226105720836468 -10.423006039793437 0 0 0
32349 10783 2 0.4238 16.963477338858997 -39.73213999465151 -20.27958361435859 0 0 0
32280 10760 2 0.4238 -30.409804633757428 -14.089081194537679 -11.364743689579871 0 0 0
32348 10783 1 -0.8476 17.415128884613633 -39.755619491250805 -21.17146869051422 0 0 0
32347 10783 2 0.4238 17.267742162427197 -39.85234518501027 -22.155806688505706 0 0 0
32383 10795 2 0.4238 -26.611776896339858 -37.07593382841521 -35.95673713170753 0 0 0
31341 10447 2 0.4238 58.985769000542646 17.52384895521429 -55.493655987974165 0 0 0
31340 10447 1 -0.8476 59.807732848229726 17.002729275124768 -55.263853666986975 0 0 0
31339 10447 2 0.4238 -59.55052425607004 16.77685457732892 -54.53095075614959 1 0 0
32384 10795 1 -0.8476 -25.707586533843077 -37.319914438062284 -35.60614727092402 0 0 0
32385 10795 2 0.4238 -24.759412714881993 -37.014544923510734 -35.51831069977294 0 0 0
32181 10727 2 0.4238 17.70154209057664 -27.78208896974729 22.58073186341275 0 0 0
32180 10727 1 -0.8476 18.566094703159493 -27.421671728518817 22.23052108843051 0 0 0
32310 10770 2 0.4238 35.43060454849561 -19.551247389187065 43.46663687805891 0 0 0
32736 10912 2 0.4238 37.38536639623943 -1.8293760405062023 -26.30826703358135 0 0 0
32735 10912 1 -0.8476 36.981653896484794 -0.9588585874167976 -26.589718585399506 0 0 0
31965 10655 2 0.4238 31.927734029637286 53.20537950556776 -1.9168522118089601 0 0 0
31833 10611 2 0.4238 -31.761470580396495 3.2059592025155284 10.245323256407346 0 0 0
31107 10369 2 0.4238 42.18753193174592 -55.6956894348106 -50.58280489784906 0 0 0
31106 10369 1 -0.8476 42.386560362641916 -55.33545564707175 -49.67142204938273 0 0 0
31105 10369 2 0.4238 43.080389251627714 -55.27590187727927 -48.95374884986069 0 0 0
31832 10611 1 -0.8476 -30.814112469482403 2.9501030724695756 10.052840412975968 0 0 0
31831 10611 2 0.4238 -29.861308917705628 3.245562869036052 10.12261791891051 0 0 0
32409 10803 2 0.4238 52.41341116069687 19.092104477857877 -51.70234557340222 0 0 0
32408 10803 1 -0.8476 51.97311323305329 18.851093842539285 -50.83744615544175 0 0 0
32407 10803 2 0.4238 51.801877331212644 18.10749741328307 -50.19111604139922 0 0 0
32509 10837 2 0.4238 -52.72590864654198 -0.7071429895935949 22.514170209978158 0 0 0
32922 10974 2 0.4238 38.761591987861635 19.04481076145574 1.600081267035519 0 0 0
32921 10974 1 -0.8476 37.96890651662145 18.435181513508006 1.601229458509872 0 0 0
32920 10974 2 0.4238 37.13438323414287 18.18475222713465 1.1104585715089184 0 0 0
32637 10879 2 0.4238 -32.28442842155694 0.7277717470062954 33.5101644903939 0 0 0
32636 10879 1 -0.8476 -32.415533252047844 -0.07146241334471641 34.09671003420291 0 0 0
32635 10879 2 0.4238 -32.159385651397564 -0.4931351868492509 34.96652638192585 0 0 0
32928 10976 2 0.4238 21.35370610271172 59.47714093502485 9.36436015891113 0 0 0
32927 10976 1 -0.8476 20.717159016665104 59.061275324170225 10.013869970666368 0 0 0
32926 10976 2 0.4238 19.869404388399328 58.538040381338305 10.100687508374113 0 0 0
32742 10914 2 0.4238 26.571127233766443 -43.04728375825872 29.078912584683938 0 0 0
32646 10882 2 0.4238 3.582547586669683 -7.335357054086946 -55.99168091405695 0 0 0
32645 10882 1 -0.8476 3.551220555086997 -7.8895357249456275 -56.82348859163019 0 0 0
32644 10882 2 0.4238 3.4895765082618766 -8.822708960769441 -57.1775898814233 0 0 0
32775 10925 2 0.4238 -41.3339914782398 3.152379411359494 21.60147677402057 0 0 0
32763 10921 2 0.4238 35.89070006412941 14.517744209959387 35.045237921372006 0 0 0
32762 10921 1 -0.8476 35.28190776162455 13.739353662101735 34.892007761060945 0 0 0
32761 10921 2 0.4238 34.723319245679534 13.04243758799116 35.34177087148758 0 0 0
31068 10356 2 0.4238 59.32120255568905 28.819935767238583 -54.84357796121751 -1 0 0
31067 10356 1 -0.8476 -59.762004161736144 28.828754935751636 -54.44431402106677 0 0 0
31066 10356 2 0.4238 -58.807026797476645 28.572418722354158 -54.59367927624019 0 0 0
32907 10969 2 0.4238 -16.117771646229436 -12.917421844165743 29.585518077986784 0 0 0
32906 10969 1 -0.8476 -17.104443669904693 -12.905889630590494 29.423207510373715 0 0 0
32905 10969 2 0.4238 -17.83345217338412 -12.501714044253044 28.870768647454515 0 0 0
30759 10253 2 0.4238 31.19136642470758 33.93356611580792 -52.332129825176075 0 0 0
30758 10253 1 -0.8476 31.345087990050416 33.01073830788458 -51.97891896480487 0 0 0
30757 10253 2 0.4238 30.89567441293694 32.17694679573343 -51.65826471023972 0 0 0
32814 10938 2 0.4238 40.00089115059055 -51.63965013501065 24.903272784162155 0 0 0
32796 10932 2 0.4238 29.527256960659052 -7.364618464708009 8.596870086154821 0 0 0
32795 10932 1 -0.8476 29.78139949097576 -8.112605276435119 7.983741471279618 0 0 0
32859 10953 2 0.4238 -34.74324702315252 -5.337220623365427 21.703477945891724 0 0 0
32858 10953 1 -0.8476 -35.53920460672164 -5.9117610182760565 21.512810029379825 0 0 0
32857 10953 2 0.4238 -36.52106456352201 -6.01942834640921 21.668882998482864 0 0 0
32829 10943 2 0.4238 -30.335406178372995 -21.65615123428468 23.880941121202785 0 0 0
32828 10943 1 -0.8476 -30.277461385354012 -20.717143320116197 23.54196334508288 0 0 0
32827 10943 2 0.4238 -30.53735357893831 -20.103914271271577 22.79603695369626 0 0 0
31964 10655 1 -0.8476 32.851682865787886 52.96373779703439 -2.213377467875421 0 0 0
31963 10655 2 0.4238 33.76862632158106 52.717474711977836 -1.8994201589678017 0 0 0
31323 10441 2 0.4238 59.397711546548784 -56.25091503980367 -38.14693260143303 0 0 0
31322 10441 1 -0.8476 58.693673213203894 -56.89277132864627 -37.84304129805891 0 0 0
31321 10441 2 0.4238 58.08592746112546 -57.135805712735525 -37.08701260218753 0 0 0
31210 10404 2 0.4238 -9.78481871672387 -38.955663024014044 -44.48177688537464 0 0 0
32179 10727 2 0.4238 19.322610668513462 -27.592358973766874 21.59921335168545 0 0 0
31212 10404 2 0.4238 -8.48420778947268 -37.70783411746092 -43.86649351123098 0 0 0
31211 10404 1 -0.8476 -8.91226876467657 -38.529210921104074 -44.243459481255776 0 0 0
32309 10770 1 -0.8476 35.95918498426227 -18.75222775419067 43.179984230369755 0 0 0
32308 10770 2 0.4238 35.89682073619636 -17.82667417219175 42.806539097301794 0 0 0
32741 10914 1 -0.8476 25.729256689433353 -43.55137322316225 28.886176514967275 0 0 0
32740 10914 2 0.4238 25.343038747685476 -44.33332739793533 28.396908316504515 0 0 0
32774 10925 1 -0.8476 -40.63613336549276 3.446549209880758 22.254513969533473 0 0 0
32773 10925 2 0.4238 -39.733983691146086 3.868057900005817 22.34647259732475 0 0 0
32910 10970 2 0.4238 -50.27499068949854 44.713723904415296 28.064854512712564 0 0 0
32909 10970 1 -0.8476 -51.23393825473928 44.517272855981034 27.86034058335767 0 0 0
32908 10970 2 0.4238 -52.10016744589552 44.201201885048945 28.24731103406787 0 0 0
31149 10383 2 0.4238 47.11988427730946 15.037411000865117 -42.51004530451842 0 0 0
31148 10383 1 -0.8476 47.870888067195956 15.347741780050821 -41.92721813487171 0 0 0
31147 10383 2 0.4238 48.106809136740296 15.691598177740698 -41.01831548512707 0 0 0
32813 10938 1 -0.8476 40.074903316382084 -52.264306855036644 24.125888981878195 0 0 0
32812 10938 2 0.4238 40.197129788598666 -53.22026993589053 23.859064549837488 0 0 0
32919 10973 2 0.4238 -47.905341306966136 12.977106476909134 17.203291848610863 0 0 0
32918 10973 1 -0.8476 -46.99157354663363 13.101513774188883 16.81657399387345 0 0 0
32917 10973 2 0.4238 -46.27363529012881 13.770536429577113 16.62428944840999 0 0 0
32811 10937 2 0.4238 -2.418718752738811 32.43135879379437 41.78677738119043 0 0 0
32810 10937 1 -0.8476 -3.3977573662110663 32.610511197728954 41.68988979629413 0 0 0
32253 10751 2 0.4238 -9.46581200922691 -36.627405113071994 48.14694965837543 0 0 0
32252 10751 1 -0.8476 -9.865739752396696 -36.060021644443644 47.42713496390008 0 0 0
32251 10751 2 0.4238 -10.612025832921065 -35.43204683753651 47.2064434871604 0 0 0
32794 10932 2 0.4238 29.438262129100984 -8.909895836304585 7.487168703169393 0 0 0
31095 10365 2 0.4238 -17.99102247422787 54.66160109618196 -44.24971836969005 0 0 0
31094 10365 1 -0.8476 -18.583027102529364 54.51403826857909 -43.45740837569041 0 0 0
31093 10365 2 0.4238 -18.626541518906016 54.53761955278162 -42.458633917365226 0 0 0
32809 10937 2 0.4238 -4.130045836144323 33.26032923318902 41.89358102731215 0 0 0
32709 10903 2 0.4238 45.787379780377506 52.56670436521357 -40.805765338455615 0 0 0
32708 10903 1 -0.8476 45.28750418229195 52.07103134918725 -40.09553154438902 0 0 0
32707 10903 2 0.4238 44.95109902006677 52.11661805352287 -39.15491822361578 0 0 0
32520 10840 2 0.4238 -2.5845128740039707 13.195896549765997 14.86225899553238 0 0 0
32519 10840 1 -0.8476 -2.4576541316595324 14.156390529731542 14.61455439615443 0 0 0
32518 10840 2 0.4238 -1.9144091678058777 14.977221334116486 14.790967830507979 0 0 0
32532 10844 2 0.4238 -16.075872337604377 8.288823336394383 -8.472603667750176 0 0 0
32531 10844 1 -0.8476 -16.31221057358469 7.762704862849694 -9.28951430216559 0 0 0
32530 10844 2 0.4238 -16.77125515926269 7.80064659267227 -10.177116968620465 0 0 0
31896 10632 2 0.4238 -31.61121407769997 21.116840801843903 6.722695211974204 0 0 0
31895 10632 1 -0.8476 -31.112063831816144 20.48577615395326 6.12888898362272 0 0 0
31894 10632 2 0.4238 -30.3678121707565 19.81883572530578 6.093112879230637 0 0 0
32355 10785 2 0.4238 -20.857497063621196 49.064160703553235 -16.941271161321257 0 0 0
32354 10785 1 -0.8476 -21.020118641252548 48.76488710356851 -17.88147801592993 0 0 0
32353 10785 2 0.4238 -21.684607597900374 48.75483425188153 -18.628708480155016 0 0 0
32835 10945 2 0.4238 -6.759904048618864 -43.21526746568616 -42.01213192866974 0 0 0
32834 10945 1 -0.8476 -7.352679863630724 -44.006538410631606 -41.862110198795605 0 0 0
32833 10945 2 0.4238 -8.02097091932763 -44.41643931263027 -41.24132979042547 0 0 0
32565 10855 2 0.4238 7.2844226582427805 34.7096674414305 34.59823474859929 0 0 0
32564 10855 1 -0.8476 7.4468510078894 35.69177627418057 34.50295271210962 0 0 0
32563 10855 2 0.4238 7.012349375818016 36.59243965324139 34.50666880495452 0 0 0
32817 10939 2 0.4238 8.820233809906524 4.644993832531203 -9.237097841622203 0 0 0
32816 10939 1 -0.8476 7.965565687324771 4.877507155485769 -8.772900308772817 0 0 0
32815 10939 2 0.4238 7.054182837595534 4.5443352218441095 -8.531285400596827 0 0 0
32493 10831 2 0.4238 -30.314499624367812 59.80805839666149 -32.985528557961885 0 0 0
32492 10831 1 -0.8476 -29.713227871573533 59.88335833584024 -32.190040284595376 0 0 0
32491 10831 2 0.4238 -29.166699138684077 -59.48505463916842 -31.64012740605111 0 1 0
31812 10604 2 0.4238 59.89223451007846 -41.512000605436015 -54.05352313952239 -1 0 0
31811 10604 1 -0.8476 -59.157019882953456 -41.479053364377606 -53.74530784991169 0 0 0
31810 10604 2 0.4238 -58.20346920934527 -41.48291509517861 -54.04651575136288 0 0 0
32460 10820 2 0.4238 -21.244340591518572 1.4683475503494805 32.78763368803855 0 0 0
32459 10820 1 -0.8476 -21.49359243302461 2.4159251378684186 32.98755774799602 0 0 0
32458 10820 2 0.4238 -21.401261613186012 3.159001695304367 33.65036409188318 0 0 0
31746 10582 2 0.4238 -25.47748139955487 -3.958013261141182 -32.42067746240264 0 0 0
31745 10582 1 -0.8476 -24.658389332874226 -3.8082563345511815 -32.97444676802673 0 0 0
31744 10582 2 0.4238 -23.736966631153777 -3.419696680540792 -32.97571169075311 0 0 0
32895 10965 2 0.4238 -39.55321753954447 -50.85563378918613 -39.96047607814699 0 0 0
32894 10965 1 -0.8476 -40.52111538688738 -50.61130317960353 -40.01943118769815 0 0 0
32893 10965 2 0.4238 -41.214575274586885 -50.164848811097634 -40.58493262977746 0 0 0
30471 10157 2 0.4238 -44.277268557888405 -32.903654424301365 -26.01589095051149 0 0 0
30470 10157 1 -0.8476 -43.61989220316957 -33.19946250468972 -26.708966200715782 0 0 0
30469 10157 2 0.4238 -43.41464919512593 -33.200741296210026 -27.687676409276726 0 0 0
31182 10394 2 0.4238 -22.536504383862244 -4.971949960656477 -27.676612916151758 0 0 0
31181 10394 1 -0.8476 -22.939094935103313 -4.102768827186098 -27.96374424478519 0 0 0
31180 10394 2 0.4238 -22.82053525749373 -3.308726331039246 -28.559932232887917 0 0 0
32562 10854 2 0.4238 -18.16955922001918 -12.971222402341974 33.7677786566555 0 0 0
32561 10854 1 -0.8476 -17.685118114923473 -12.161165240932288 33.43744003409557 0 0 0
32560 10854 2 0.4238 -17.56342972883727 -11.547759342709298 32.657103478039794 0 0 0
32631 10877 2 0.4238 -21.108239105269114 37.3868094870037 -16.345890173447255 0 0 0
32630 10877 1 -0.8476 -22.04266670648043 37.723403128120076 -16.462291090397017 0 0 0
32629 10877 2 0.4238 -22.61413323287888 38.54344373336452 -16.493265514627623 0 0 0
30230 10077 1 -0.8476 53.020124961926605 10.502839738669763 -26.73001003922876 0 0 0
30229 10077 2 0.4238 53.879938593598396 10.393454785396631 -27.22876393724742 0 0 0
29886 9962 2 0.4238 54.54835592580219 14.997163914774779 -28.18566121239813 0 0 0
29885 9962 1 -0.8476 54.180926399710465 15.916556942477385 -28.326058500762457 0 0 0
30231 10077 2 0.4238 52.43378943700067 11.15765239671687 -26.25311337360467 0 0 0
29884 9962 2 0.4238 53.715210598426346 16.682952392374997 -27.88362567330671 0 0 0
28629 9543 2 0.4238 4.734529548079611 20.888180219259493 -27.917669353467375 0 0 0
28628 9543 1 -0.8476 3.910182963970548 20.99527910718797 -27.361807921018237 0 0 0
28627 9543 2 0.4238 2.9251935095680213 21.16530268786872 -27.391603167757633 0 0 0
32559 10853 2 0.4238 41.480594438630746 -19.59618010704248 48.340228640951096 0 0 0
32558 10853 1 -0.8476 41.42010989862251 -20.348688084869504 47.68442931315414 0 0 0
32557 10853 2 0.4238 41.379958039811726 -21.343290328932618 47.5887517068992 0 0 0
32589 10863 2 0.4238 18.40466246837891 -6.884183927924773 48.32284353903215 0 0 0
31920 10640 2 0.4238 47.49787650703619 37.7308400347407 -37.5730928437261 0 0 0
31919 10640 1 -0.8476 47.26841353905568 36.761910312832846 -37.665403920750435 0 0 0
31918 10640 2 0.4238 46.614433985834204 36.05213591786903 -37.403619558685065 0 0 0
31484 10495 1 -0.8476 -24.51224049281415 -42.63846248867816 -19.222201847700788 0 0 0
31483 10495 2 0.4238 -25.495403974060963 -42.72675148550448 -19.382185041137028 0 0 0
32415 10805 2 0.4238 24.92765141807764 30.479339180249998 42.171417906552435 0 0 0
32414 10805 1 -0.8476 25.20819663052547 30.606043576041536 43.12285880039291 0 0 0
32413 10805 2 0.4238 25.203515124076834 30.194419837036527 44.0342006577576 0 0 0
31620 10540 2 0.4238 -11.70776062002095 -14.5656994242391 -20.676058845744947 0 0 0
31619 10540 1 -0.8476 -12.036001107249653 -14.062430512182912 -19.87669786388889 0 0 0
31618 10540 2 0.4238 -11.813798854512795 -13.785850899712356 -18.941748733270387 0 0 0
31426 10476 2 0.4238 21.126293329409485 -15.877331186378848 -14.463739025476396 0 0 0
32322 10774 2 0.4238 -27.15017592394014 30.539217111640784 44.65492862346187 0 0 0
32321 10774 1 -0.8476 -27.610896235249477 29.65306250379113 44.704589476717814 0 0 0
32320 10774 2 0.4238 -28.259502082706792 29.101526548190858 45.22910691620317 0 0 0
32871 10957 2 0.4238 56.795849504026904 37.924503863551934 36.94456983971472 0 0 0
32870 10957 1 -0.8476 56.51570401250661 37.13504339992163 36.39842876402298 0 0 0
32869 10957 2 0.4238 55.87427258096478 36.81411752204302 35.701598584181404 0 0 0
32793 10931 2 0.4238 -58.21150280351335 8.26175476506316 -6.258549870045539 0 0 0
32792 10931 1 -0.8476 -57.987302755698465 7.434268002005866 -6.773330784743261 0 0 0
32791 10931 2 0.4238 -57.88648186978265 7.048978356806279 -7.690602303032764 0 0 0
32588 10863 1 -0.8476 17.84118045174786 -7.3892390834166255 47.669080048573434 0 0 0
32587 10863 2 0.4238 17.645115764708873 -7.524211215299893 46.69782253271516 0 0 0
31009 10337 2 0.4238 1.9695630616324349 42.57606167141141 -14.967937741768482 0 0 0
31010 10337 1 -0.8476 1.6304872685286107 43.4525253340049 -15.309755024368691 0 0 0
31011 10337 2 0.4238 1.4955582781893249 44.00885295917923 -16.129689860588105 0 0 0
32781 10927 2 0.4238 52.18524857009178 43.203134343371765 -45.694031228541945 0 0 0
31860 10620 2 0.4238 28.25560964158112 -13.701756095734497 -5.1112669371509085 0 0 0
31859 10620 1 -0.8476 28.795696588467994 -13.123646127302159 -4.499634409554601 0 0 0
32706 10902 2 0.4238 1.9026985473483913 -19.13813171222844 58.180232655939406 0 0 0
32705 10902 1 -0.8476 2.326520891511377 -18.286053298038542 57.873090357855816 0 0 0
32704 10902 2 0.4238 3.0096320075894223 -17.892791225695067 57.2577009319256 0 0 0
31485 10495 2 0.4238 -23.721204860441787 -43.0507723443808 -18.770247640042566 0 0 0
31074 10358 2 0.4238 11.329436422116416 -46.41224356435382 -15.741708385112515 0 0 0
31073 10358 1 -0.8476 11.407164121748064 -47.13501054824546 -16.428414789857943 0 0 0
31072 10358 2 0.4238 10.891158608848738 -47.74109435228959 -17.033725233459307 0 0 0
32841 10947 2 0.4238 -26.751170879297497 -59.760516531430234 59.6468765845525 0 0 0
32840 10947 1 -0.8476 -26.679854876054577 -59.86720686527135 58.65514547434238 0 0 0
32839 10947 2 0.4238 -26.16410898049722 -59.595569801196895 57.842606566574425 0 0 0
30621 10207 2 0.4238 -23.650774325717595 -13.269407031592852 -14.89339428464155 0 0 0
30620 10207 1 -0.8476 -22.676244530340014 -13.074660908636023 -14.782196172576564 0 0 0
30619 10207 2 0.4238 -21.799919845693243 -13.009501008683124 -15.25948982905737 0 0 0
31902 10634 2 0.4238 13.598987222552681 -31.100760376313044 49.86690117173031 0 0 0
31901 10634 1 -0.8476 13.6852854276844 -31.88253482753549 49.24934087360619 0 0 0
31900 10634 2 0.4238 13.603692565479303 -32.18112661858218 48.29845415734776 0 0 0
31428 10476 2 0.4238 21.046691886798115 -15.522893813740405 -12.59417299192114 0 0 0
31427 10476 1 -0.8476 21.29956594483754 -15.913056197051866 -13.479513276801267 0 0 0
31608 10536 2 0.4238 48.34475250265015 3.2853619105383327 -11.457037164692217 0 0 0
31607 10536 1 -0.8476 47.67775661913634 2.593342414807502 -11.73312574380466 0 0 0
31606 10536 2 0.4238 46.73015267963898 2.290457539407845 -11.631599756475211 0 0 0
32535 10845 2 0.4238 -19.706526953535377 18.839765309845045 -26.102841287756593 0 0 0
32534 10845 1 -0.8476 -19.823146790300996 19.824132443487237 -25.970854339575826 0 0 0
32533 10845 2 0.4238 -20.442427458092997 20.596349787781577 -26.11288189912008 0 0 0
31869 10623 2 0.4238 24.29064514770811 22.498957149306005 29.22835003687336 0 0 0
31868 10623 1 -0.8476 23.36908605686419 22.16389312825584 29.032236961090845 0 0 0
32226 10742 2 0.4238 -47.21506523979333 -19.06193310053397 -1.9297995758466202 0 0 0
32225 10742 1 -0.8476 -48.20508627432812 -19.154453208691184 -2.036090569714856 0 0 0
32224 10742 2 0.4238 -49.02484520874597 -18.732121011149662 -2.422911981172191 0 0 0
32682 10894 2 0.4238 -50.997113084646124 -11.053640012437928 26.32648778310505 0 0 0
32681 10894 1 -0.8476 -51.95646098933392 -10.777148922027834 26.383088748708367 0 0 0
32680 10894 2 0.4238 -52.66284140308253 -10.201198816953003 25.97161798724818 0 0 0
32754 10918 2 0.4238 55.90283512747253 15.1559501648431 -17.077107826469955 0 0 0
32753 10918 1 -0.8476 55.247215502892715 14.610699439881763 -16.554744017035183 0 0 0
32752 10918 2 0.4238 54.335494258055185 14.608334939220232 -16.143941411336865 0 0 0
32780 10927 1 -0.8476 52.549029121582976 42.64712097212314 -46.44136799062564 0 0 0
31314 10438 2 0.4238 -1.053907273552794 43.880893798691424 -12.123006178647001 0 0 0
31313 10438 1 -0.8476 -0.9062164113062892 43.13706433096065 -12.774853190419286 0 0 0
31312 10438 2 0.4238 -0.44817996770846913 42.87987348679747 -13.625767690245716 0 0 0
32724 10908 2 0.4238 17.688532233237567 -22.19887640384145 0.20941708805634074 0 0 0
32723 10908 1 -0.8476 17.522078248722213 -22.464225151351652 1.1590920365760777 0 0 0
32779 10927 2 0.4238 53.38398944388074 42.27489584085105 -46.84669466361657 0 0 0
31858 10620 2 0.4238 28.848090098348298 -12.224155428794282 -4.0658471305568735 0 0 0
32688 10896 2 0.4238 -9.183722077569778 -2.701586757410371 24.595250179715656 0 0 0
32687 10896 1 -0.8476 -8.803449445891944 -2.2976930381589558 25.427273006180375 0 0 0
32686 10896 2 0.4238 -8.403834970372747 -2.5008900288041898 26.321151775336602 0 0 0
30636 10212 2 0.4238 -7.075102938848352 -43.202416904611106 -3.308346141359984 0 0 0
32862 10954 2 0.4238 -12.040125565478677 -23.93241688883411 19.938439866578214 0 0 0
32861 10954 1 -0.8476 -12.315315556363373 -24.875736654455583 20.12395990139112 0 0 0
32860 10954 2 0.4238 -12.629871037186632 -25.50707226248689 20.832811225376478 0 0 0
32289 10763 2 0.4238 -40.26175306557386 39.46065157399753 14.162292885530071 0 0 0
32288 10763 1 -0.8476 -40.68592626477766 39.65456342497307 15.046868877596738 0 0 0
32287 10763 2 0.4238 -41.4466544952601 40.119289341183325 15.499994006175626 0 0 0
31867 10623 2 0.4238 22.843251708855142 21.39591329608823 28.666579722904977 0 0 0
32913 10971 2 0.4238 2.721458272628184 -22.69146159155423 49.16641252334129 0 0 0
32912 10971 1 -0.8476 3.454654193172339 -23.314000790307166 48.892792197477675 0 0 0
32911 10971 2 0.4238 3.670313642815697 -24.25919341017801 48.647635282174 0 0 0
32722 10908 2 0.4238 17.133713422714884 -22.16612479957425 2.031048997779135 0 0 0
32208 10736 2 0.4238 -52.53697047294401 -41.42186656973855 40.068517206435885 0 0 0
32207 10736 1 -0.8476 -53.4183096969641 -41.058980020684075 39.76593842441165 0 0 0
32206 10736 2 0.4238 -54.327218779327566 -40.77205860119004 40.068527880660085 0 0 0
32856 10952 2 0.4238 26.082153258241856 2.578718763401201 27.186211211114266 0 0 0
32855 10952 1 -0.8476 25.16638544075701 2.193522475697992 27.072226479632555 0 0 0
32854 10952 2 0.4238 24.190118020428574 2.362026809953484 27.208271374216565 0 0 0
32691 10897 2 0.4238 -37.49286549149 -17.68876449080874 58.55335046876167 0 0 0
32690 10897 1 -0.8476 -38.15757828843839 -18.42345747411567 58.68893259319129 0 0 0
32689 10897 2 0.4238 -39.12632812840008 -18.628709907670352 58.828199193975735 0 0 0
32880 10960 2 0.4238 57.41053923222316 10.91597674212846 30.654038013536876 0 0 0
32879 10960 1 -0.8476 56.644603027332266 10.273220836029726 30.668389662389384 0 0 0
32878 10960 2 0.4238 55.64809837009953 10.195556152118217 30.699157583775136 0 0 0
32331 10777 2 0.4238 19.591889159304543 -16.242751705885667 -53.969322617045364 0 0 0
32244 10748 2 0.4238 -58.14230985254862 -46.23013737443378 -28.17276141301873 0 0 0
30635 10212 1 -0.8476 -6.485188889326287 -42.496103027710376 -2.917038696904628 0 0 0
30634 10212 2 0.4238 -5.905693680490195 -41.70968923368289 -3.130904653754463 0 0 0
32799 10933 2 0.4238 -32.614527704769486 -34.01104976281706 -57.83460419231659 0 0 0
32798 10933 1 -0.8476 -31.999024073044232 -33.86928596520129 -58.60988330310885 0 0 0
32797 10933 2 0.4238 -31.927010822706084 -33.492003174274316 -59.53317729065891 0 0 0
32766 10922 2 0.4238 -32.69026011127502 -36.74696742005863 -16.012564485688433 0 0 0
32765 10922 1 -0.8476 -33.60536333059619 -37.08100047928276 -16.238412682372953 0 0 0
32764 10922 2 0.4238 -34.58357598181447 -36.93973884697801 -16.086277347111515 0 0 0
32734 10912 2 0.4238 36.79098287553614 -0.3654827979202181 -27.371735039324683 0 0 0
32325 10775 2 0.4238 24.698658387680695 -44.945013494328926 -5.796277457471959 0 0 0
32324 10775 1 -0.8476 24.213902156323936 -45.78466317672474 -5.551330112873867 0 0 0
31884 10628 2 0.4238 0.919540589981269 2.3009854051262164 40.58138253290675 0 0 0
31883 10628 1 -0.8476 0.45767265451081995 2.6067431328000894 41.41396262921234 0 0 0
31882 10628 2 0.4238 0.5844598589306508 2.8235152453770644 42.38191658266484 0 0 0
32475 10825 2 0.4238 -24.031218975710864 -9.1709241826905 -46.06525313217788 0 0 0
32474 10825 1 -0.8476 -24.51712122170302 -9.947312058198904 -46.4666510254404 0 0 0
32473 10825 2 0.4238 -25.380185756218534 -10.4523778988618 -46.47195252117401 0 0 0
31482 10494 2 0.4238 7.313138347682338 36.12739305918316 -0.4262085183600611 0 0 0
31481 10494 1 -0.8476 8.165451266296529 36.23836230829966 0.0849156437826551 0 0 0
31480 10494 2 0.4238 9.115756396700359 35.93569258681576 0.15779361593458102 0 0 0
32330 10777 1 -0.8476 19.537671713292536 -17.194858774327763 -53.668404034397525 0 0 0
32329 10777 2 0.4238 18.93946572547347 -17.99310745593301 -53.59805747475952 0 0 0
32243 10748 1 -0.8476 -58.89699451766841 -46.87853609000199 -28.07261373958205 0 0 0
32242 10748 2 0.4238 -59.73759439719904 -47.21991284241815 -28.493153577698365 0 0 0
32163 10721 2 0.4238 36.96421717908312 19.479526845340057 -50.47301256441526 0 0 0
32162 10721 1 -0.8476 37.723044525262836 18.906771896491854 -50.16296059800964 0 0 0
32161 10721 2 0.4238 37.98065944718975 17.985830089294534 -49.8705555027108 0 0 0
31932 10644 2 0.4238 59.64837232088716 -32.54881987617418 3.787363186488775 -1 0 0
31931 10644 1 -0.8476 59.948576365212524 -31.860844855343 4.448095580953667 -1 0 0
31930 10644 2 0.4238 59.753219372640565 -30.955796610993723 4.825882982614363 -1 0 0
31337 10446 1 -0.8476 -17.384008455385185 26.64510573229703 10.61663204462953 0 0 0
32577 10859 2 0.4238 -6.882122123048631 -40.76483552140597 54.35073482227151 0 0 0
32576 10859 1 -0.8476 -7.643304861113733 -41.039643379679134 53.76329897478237 0 0 0
31336 10446 2 0.4238 -17.518500162333805 27.625089126446007 10.469851501115423 0 0 0
32580 10860 2 0.4238 31.491137711476654 -34.64839385023347 -20.21471870857414 0 0 0
32579 10860 1 -0.8476 32.11304432781558 -34.469100254885 -20.977008261062654 0 0 0
32578 10860 2 0.4238 32.55153437604279 -34.87064595133761 -21.781052744450285 0 0 0
32694 10898 2 0.4238 23.82757995004032 12.195433269140215 30.433553945214587 0 0 0
32079 10693 2 0.4238 -15.828148106686575 -10.647055789698054 33.30599163075691 0 0 0
32078 10693 1 -0.8476 -15.287166155149785 -9.807076157287655 33.263894839200084 0 0 0
32077 10693 2 0.4238 -14.545941530519212 -9.339998381623927 32.78179069347814 0 0 0
32526 10842 2 0.4238 -19.0769575809679 24.960069431603223 -49.72653537342857 0 0 0
32525 10842 1 -0.8476 -18.369980690428147 24.559208126130457 -50.30919589605701 0 0 0
32524 10842 2 0.4238 -17.559978363692203 23.9728696862843 -50.3193676530896 0 0 0
32784 10928 2 0.4238 21.690013209123858 -5.962690463339525 30.9354850031384 0 0 0
32783 10928 1 -0.8476 21.69076783895647 -6.771588813973012 31.52343252076943 0 0 0
32782 10928 2 0.4238 21.870122720649334 -7.754891869302317 31.554204712647724 0 0 0
32421 10807 2 0.4238 56.52882922840531 11.650273070827668 -29.23464834512045 0 0 0
32693 10898 1 -0.8476 23.16909913356818 11.826780187509899 31.089676886708713 0 0 0
32692 10898 2 0.4238 22.197899229559667 11.66373051399101 31.263416779707523 0 0 0
32625 10875 2 0.4238 -40.76612615008771 40.51529998989984 -22.09399099058598 0 0 0
32624 10875 1 -0.8476 -41.23285484279055 40.951261374657975 -22.86347223988314 0 0 0
32623 10875 2 0.4238 -41.79952396876797 41.72857839002178 -23.136720038208935 0 0 0
32832 10944 2 0.4238 20.587251016794283 17.89231971241439 -49.50943007275799 0 0 0
32831 10944 1 -0.8476 19.8150054275873 17.279985844694853 -49.67879175380256 0 0 0
32830 10944 2 0.4238 18.858763994760317 17.237287477850224 -49.96823807285636 0 0 0
31491 10497 2 0.4238 -31.32834864180626 -25.41600432576963 20.238013109987534 0 0 0
31490 10497 1 -0.8476 -31.140498278167744 -24.829804727070286 19.44992576331975 0 0 0
31489 10497 2 0.4238 -31.36710996942454 -24.658162273842116 18.491183874365504 0 0 0
32340 10780 2 0.4238 40.31240039193443 7.686662408309593 25.057181020577605 0 0 0
32339 10780 1 -0.8476 39.47328995963902 7.963045968554073 24.58866719511259 0 0 0
32338 10780 2 0.4238 38.48417134342408 8.071803739340282 24.68774348062372 0 0 0
32847 10949 2 0.4238 32.23570771688834 52.937121562939545 -54.387443998938316 0 0 0
32823 10941 2 0.4238 58.131293961343 -4.548828762400065 35.80625639289323 0 0 0
31338 10446 2 0.4238 -17.242869640691836 25.766038952826143 10.161307076249921 0 0 0
32575 10859 2 0.4238 -7.989883903999143 -41.76250932602322 53.16551323503217 0 0 0
31500 10500 2 0.4238 20.87005992319601 29.975245289878607 12.594255452924038 0 0 0