LAMMPS data file via write_data, version 27 Jun 2024, timestep = 0, units = real

60 atoms
2 atom types
40 bonds
1 bond types
20 angles
1 angle types

-40 40 xlo xhi
-40 40 ylo yhi
-40 40 zlo zhi

Atom Type Labels

1 O
2 H

Bond Type Labels

1 O-H

Angle Type Labels

1 H-O-H

Masses

1 15.9994
2 1.00784

Pair Coeffs # lj/cut/coul/long

1 0.15535 3.166
2 0 1

Bond Coeffs # harmonic

1 0 1

Angle Coeffs # harmonic

1 0 109.47

Atoms # full

45 15 2 0.4238 -18.723249824312767 14.704178987765086 -33.163338359293334 0 0 0
22 8 2 0.4238 -8.502584118329978 19.962731873659557 -36.010457354612036 0 0 0
23 8 1 -0.8476 -8.197649309823822 19.97228080019875 -35.0581320002487 0 0 0
24 8 2 0.4238 -7.4289918036134726 20.176517013613154 -34.45195331216334 0 0 0
4 2 2 0.4238 8.454854834709554 37.58752754828006 -34.03573923956746 0 0 0
5 2 1 -0.8476 8.563632481692965 36.60656751367137 -34.196626883646395 0 0 0
6 2 2 0.4238 8.277522306715234 35.83964067806281 -34.77105145764188 0 0 0
7 3 2 0.4238 -20.428429993068914 -36.439158840256816 -32.196172662894234 0 0 0
8 3 1 -0.8476 -19.437052632260308 -36.53298107297486 -32.287651169243915 0 0 0
9 3 2 0.4238 -18.57379881707796 -36.031062624310145 -32.34122463352778 0 0 0
43 15 2 0.4238 -19.420349239202686 15.784854035610573 -31.758548965349693 0 0 0
44 15 1 -0.8476 -19.201202631265502 15.428882793004938 -32.66698676655979 0 0 0
52 18 2 0.4238 30.309908701293132 35.01988504320682 -31.461750866780978 0 0 0
53 18 1 -0.8476 29.71075535552067 34.21925119160392 -31.46091186906706 0 0 0
54 18 2 0.4238 28.81988503259215 33.86940941084557 -31.75067071841132 0 0 0
28 10 2 0.4238 36.56894597573737 -1.1288613823686744 -23.96019419614492 0 0 0
29 10 1 -0.8476 37.059206659430785 -1.4464380336367653 -23.148535688770167 0 0 0
30 10 2 0.4238 37.76806392470585 -1.212978781765624 -22.482940053421814 0 0 0
31 11 2 0.4238 -36.548909650787614 8.841032534271541 -21.432329800879547 0 0 0
32 11 1 -0.8476 -35.75238594009646 8.412556598176335 -21.85889556426677 0 0 0
33 11 2 0.4238 -34.89535803746368 8.588879226986402 -22.34305762317951 0 0 0
1 1 2 0.4238 -16.145046905266184 26.885580925022165 -19.935859821368453 0 0 0
2 1 1 -0.8476 -15.827173970437434 26.29181914082081 -20.67505109629354 0 0 0
3 1 2 0.4238 -15.017776119602951 25.943099816594554 -21.147564954913538 0 0 0
58 20 2 0.4238 36.82656979355259 -12.963763716604113 -9.925507927813948 0 0 0
59 20 1 -0.8476 37.48798980257456 -12.778361300608472 -9.19876896793333 0 0 0
60 20 2 0.4238 38.193449811778734 -12.143756308895608 -8.883171004506742 0 0 0
49 17 2 0.4238 17.00158216972734 13.76458748227659 -6.755217576375946 0 0 0
50 17 1 -0.8476 17.65993839587954 14.504390033239215 -6.6164398221218015 0 0 0
51 17 2 0.4238 17.847767781025155 15.340264329388463 -6.100655295671976 0 0 0
55 19 2 0.4238 8.154855351055982 -26.144628706584623 -0.08889593743969199 0 0 0
56 19 1 -0.8476 8.37362133228676 -27.119718796111314 -0.052279509938287616 0 0 0
57 19 2 0.4238 8.756157579578836 -27.887595574242418 -0.5661186557095473 0 0 0
34 12 2 0.4238 -25.96782816046344 17.065252693037433 -0.5667092102950384 0 0 0
35 12 1 -0.8476 -25.16996813075161 16.47155614710963 -0.6713217541969556 0 0 0
36 12 2 0.4238 -24.25638850091715 16.399389793918697 -1.0715262919409803 0 0 0
19 7 2 0.4238 34.6186406726586 34.09675376264303 3.5175352167915825 0 0 0
17 6 1 -0.8476 25.286679149948085 -39.555971644191416 8.321403286345381 0 0 0
18 6 2 0.4238 24.84873476816267 -39.38811715581888 7.438210791014926 0 0 0
16 6 2 0.4238 25.69739005573946 -39.11952269905319 9.121921162567869 0 0 0
20 7 1 -0.8476 34.46074878990338 34.19076615522615 4.5005061336557635 0 0 0
21 7 2 0.4238 34.883388010453174 34.113469047612796 5.403501505194244 0 0 0
25 9 2 0.4238 38.69574280748578 11.059842764316206 20.005665071905753 0 0 0
26 9 1 -0.8476 38.557735197835484 11.905030632844523 19.48932083927487 0 0 0
27 9 2 0.4238 38.98591732079364 12.552372616121717 18.858759326908277 0 0 0
46 16 2 0.4238 -6.324626408842908 3.5649664926525015 30.598551982709782 0 0 0
47 16 1 -0.8476 -5.345029642022821 3.6718567801110575 30.768741996760728 0 0 0
48 16 2 0.4238 -4.537194794597308 4.221017029943055 30.554673610720876 0 0 0
40 14 2 0.4238 -18.27418584148211 -26.651841943388185 35.18454768506066 0 0 0
41 14 1 -0.8476 -17.544874950346966 -27.13436444327877 34.69949339823186 0 0 0
42 14 2 0.4238 -16.69247792816752 -27.645060596107882 34.81177941996836 0 0 0
10 4 2 0.4238 34.44678544425302 -25.630235102129777 39.57252775099142 0 0 0
11 4 1 -0.8476 33.80719906764423 -24.915746680589212 39.85613939098686 0 0 0
12 4 2 0.4238 33.1564530410179 -24.230066372212555 39.529992923664594 0 0 0
37 13 2 0.4238 20.516830901821812 -14.343486635413747 36.00469139551485 0 0 0
38 13 1 -0.8476 21.206077269650535 -13.831223986691914 36.51706471952714 0 0 0
39 13 2 0.4238 21.548282959511845 -12.915950926480285 36.729596801081044 0 0 0
13 5 2 0.4238 -34.88848154577198 0.8635607338681799 39.785053687476356 0 0 0
14 5 1 -0.8476 -33.899934873380765 0.7161185901909761 39.81724515796348 0 0 0
15 5 2 0.4238 -33.011860321208395 1.169145426362797 39.89528149632096 0 0 0

Velocities

45 0 0 0
22 0 0 0
23 0 0 0
24 0 0 0
4 0 0 0
5 0 0 0
6 0 0 0
7 0 0 0
8 0 0 0
9 0 0 0
43 0 0 0
44 0 0 0
52 0 0 0
53 0 0 0
54 0 0 0
28 0 0 0
29 0 0 0
30 0 0 0
31 0 0 0
32 0 0 0
33 0 0 0
1 0 0 0
2 0 0 0
3 0 0 0
58 0 0 0
59 0 0 0
60 0 0 0
49 0 0 0
50 0 0 0
51 0 0 0
55 0 0 0
56 0 0 0
57 0 0 0
34 0 0 0
35 0 0 0
36 0 0 0
19 0 0 0
17 0 0 0
18 0 0 0
16 0 0 0
20 0 0 0
21 0 0 0
25 0 0 0
26 0 0 0
27 0 0 0
46 0 0 0
47 0 0 0
48 0 0 0
40 0 0 0
41 0 0 0
42 0 0 0
10 0 0 0
11 0 0 0
12 0 0 0
37 0 0 0
38 0 0 0
39 0 0 0
13 0 0 0
14 0 0 0
15 0 0 0

Bonds

1 1 22 23
2 1 23 24
3 1 4 5
4 1 5 6
5 1 7 8
6 1 8 9
7 1 43 44
8 1 44 45
9 1 52 53
10 1 53 54
11 1 28 29
12 1 29 30
13 1 31 32
14 1 32 33
15 1 1 2
16 1 2 3
17 1 58 59
18 1 59 60
19 1 49 50
20 1 50 51
21 1 55 56
22 1 56 57
23 1 34 35
24 1 35 36
25 1 19 20
26 1 17 18
27 1 16 17
28 1 20 21
29 1 25 26
30 1 26 27
31 1 46 47
32 1 47 48
33 1 40 41
34 1 41 42
35 1 10 11
36 1 11 12
37 1 37 38
38 1 38 39
39 1 13 14
40 1 14 15

Angles

1 1 22 23 24
2 1 4 5 6
3 1 7 8 9
4 1 43 44 45
5 1 52 53 54
6 1 28 29 30
7 1 31 32 33
8 1 1 2 3
9 1 58 59 60
10 1 49 50 51
11 1 55 56 57
12 1 34 35 36
13 1 16 17 18
14 1 19 20 21
15 1 25 26 27
16 1 46 47 48
17 1 40 41 42
18 1 10 11 12
19 1 37 38 39
20 1 13 14 15
