LAMMPS (27 Jun 2024)
  using 8 OpenMP thread(s) per MPI task
package omp 0
using multi-threaded neighbor list subroutines
# LAMMPS input script by Simon Gravelle
# For LAMMPS tutorials, see https://lammpstutorials.github.io
# Last tested using the 27Jun2024 LAMMPS version

variable Nstep equal 2500000
variable mu_K equal -3000
variable mu_kcal_mol equal ${mu_K}*0.0019872041
variable mu_kcal_mol equal -3000*0.0019872041
print "mu equal ${mu_kcal_mol}"
mu equal -5.9616123
variable tfac equal 5.0/3.0
variable Nattempt equal 100

units real
boundary p p p
atom_style full
pair_style lj/cut/coul/long 12
kspace_style ewald 1.0e-5
bond_style harmonic
angle_style harmonic
pair_modify mix geometric
special_bonds lj 0.0 0.0 0.0 coul 0.0 0.0 0.0 angle yes

read_data box.data extra/bond/per/atom 2 extra/angle/per/atom 2 extra/special/per/atom 2
Reading data file ...
  orthogonal box = (0.03 -0.061998 -0.327001) to (40.149999 39.538 39.753001)
  1 by 1 by 1 MPI processor grid
  reading atom labelmap ...
  reading bond labelmap ...
  reading angle labelmap ...
  reading atoms ...
  3471 atoms
  reading velocities ...
  3471 velocities
  scanning bonds ...
  3 = max bonds/atom
  scanning angles ...
  3 = max angles/atom
  orthogonal box = (0.03 -0.061998 -0.327001) to (40.149999 39.538 39.753001)
  1 by 1 by 1 MPI processor grid
  reading bonds ...
  10 bonds
  reading angles ...
  5 angles
Finding 1-2 1-3 1-4 neighbors ...
  special bond factors lj:    0        0        0       
  special bond factors coul:  0        0        0       
     2 = max # of 1-2 neighbors
     1 = max # of 1-3 neighbors
     1 = max # of 1-4 neighbors
  10 = # of 1-3 neighbors before angle trim
  10 = # of 1-3 neighbors after angle trim
     4 = max # of special neighbors
  special bonds CPU = 0.001 seconds
  read_data CPU = 0.037 seconds
labelmap atom 1 O 2 Si 3 OC 4 CO
labelmap bond 1 CO-OC
labelmap angle 1 OC-CO-OC

group SiO type O Si
3456 atoms in group SiO
group CO2 type OC CO
15 atoms in group CO2
neigh_modify exclude group SiO SiO

include parm.lmp
# LAMMPS parameter file for rigid CO2 and rigid MFI
# For conversion from K to kcal / mol, multiply
# by Boltzmann = 0.0019872041 kcal / (mol * K)

mass O 15.9994
mass Si 28.0855
mass OC 15.9994
mass CO 12.0110

pair_coeff O O 0.25478 2.708
pair_coeff Si Si 0.03696 0.677
pair_coeff OC OC 0.164858 3.011
pair_coeff CO CO 0.05894 2.789

bond_coeff CO-OC 0.0 1.18 # rigid

angle_coeff OC-CO-OC 0.0 180.0 # rigid

set type O mol 1
Setting atom values ...
  2304 settings made for mol
set type Si mol 2
Setting atom values ...
  1152 settings made for mol
molecule CO2mol CO2.mol
Read molecule template CO2mol:
# LAMMPS molecule file for carbondioxide
  1 molecules
  0 fragments
  3 atoms with max type 4
  2 bonds with max type 1
  1 angles with max type 1
  0 dihedrals with max type 0
  0 impropers with max type 0

fix mynvt CO2 rigid/nvt/small molecule temp 300 300 100 mol CO2mol
  create bodies CPU = 0.000 seconds
  5 rigid bodies with 15 atoms
  1.18 = max distance from body owner to body atom
thermo 1000

run 2000

CITE-CITE-CITE-CITE-CITE-CITE-CITE-CITE-CITE-CITE-CITE-CITE-CITE

Your simulation uses code contributions which should be cited:

- Type Label Framework: https://doi.org/10.1021/acs.jpcb.3c08419

@Article{Gissinger24,
 author = {Jacob R. Gissinger, Ilia Nikiforov, Yaser Afshar, Brendon Waters, Moon-ki Choi, Daniel S. Karls, Alexander Stukowski, Wonpil Im, Hendrik Heinz, Axel Kohlmeyer, and Ellad B. Tadmor},
 title = {Type Label Framework for Bonded Force Fields in LAMMPS},
 journal = {J. Phys. Chem. B},
 year =    2024,
 volume =  128,
 number =  13,
 pages =   {3282–-3297}
}

CITE-CITE-CITE-CITE-CITE-CITE-CITE-CITE-CITE-CITE-CITE-CITE-CITE

Ewald initialization ...
  using 12-bit tables for long-range coulomb (src/kspace.cpp:342)
  G vector (1/distance) = 0.24105396
  estimated absolute RMS force accuracy = 0.0041935194
  estimated relative force accuracy = 1.2628659e-05
  KSpace vectors: actual max1d max3d = 1555 9 3429
                  kxmax kymax kzmax  = 9 9 9
Generated 6 of 6 mixed pair_coeff terms from geometric mixing rule
Last active /omp style is kspace_style ewald/omp
WARNING: Neighbor exclusions used with KSpace solver may give inconsistent Coulombic energies (src/neighbor.cpp:658)
Neighbor list info ...
  update: every = 1 steps, delay = 0 steps, check = yes
  max neighbors/atom: 2000, page size: 100000
  master list distance cutoff = 14
  ghost atom cutoff = 14
  binsize = 7, bins = 6 6 6
  1 neighbor lists, perpetual/occasional/extra = 1 0 0
  (1) pair lj/cut/coul/long/omp, perpetual
      attributes: half, newton on, omp
      pair build: half/bin/newton/omp
      stencil: half/bin/3d
      bin: standard
Per MPI rank memory allocation (min/avg/max) = 63.75 | 63.75 | 63.75 Mbytes
   Step          Temp          E_pair         E_mol          TotEng         Press     
         0   0             -49833.845      0             -49833.845     -163.62111    
      1000   1.0669887     -49838.36       0             -49827.345     -121.84354    
      2000   1.2542567     -49835.372      0             -49822.424     -118.75588    
Loop time of 9.96903 on 8 procs for 2000 steps with 3471 atoms

Performance: 17.334 ns/day, 1.385 hours/ns, 200.621 timesteps/s, 696.356 katom-step/s
799.8% CPU use with 1 MPI tasks x 8 OpenMP threads

MPI task timing breakdown:
Section |  min time  |  avg time  |  max time  |%varavg| %total
---------------------------------------------------------------
Pair    | 0.067242   | 0.067242   | 0.067242   |   0.0 |  0.67
Bond    | 0.0089443  | 0.0089443  | 0.0089443  |   0.0 |  0.09
Kspace  | 9.3239     | 9.3239     | 9.3239     |   0.0 | 93.53
Neigh   | 0.087805   | 0.087805   | 0.087805   |   0.0 |  0.88
Comm    | 0.14552    | 0.14552    | 0.14552    |   0.0 |  1.46
Output  | 0.00012921 | 0.00012921 | 0.00012921 |   0.0 |  0.00
Modify  | 0.30617    | 0.30617    | 0.30617    |   0.0 |  3.07
Other   |            | 0.02932    |            |       |  0.29

Nlocal:           3471 ave        3471 max        3471 min
Histogram: 1 0 0 0 0 0 0 0 0 0
Nghost:          13645 ave       13645 max       13645 min
Histogram: 1 0 0 0 0 0 0 0 0 0
Neighs:           9094 ave        9094 max        9094 min
Histogram: 1 0 0 0 0 0 0 0 0 0

Total # of neighbors = 9094
Ave neighs/atom = 2.6199942
Ave special neighs/atom = 0.0086430424
Neighbor list builds = 15
Dangerous builds = 0

fix fgcmc CO2 gcmc 100 ${Nattempt} 0 0 25899 300 ${mu_kcal_mol} 0.1     mol CO2mol tfac_insert ${tfac} full_energy rigid mynvt
fix fgcmc CO2 gcmc 100 100 0 0 25899 300 ${mu_kcal_mol} 0.1     mol CO2mol tfac_insert ${tfac} full_energy rigid mynvt
fix fgcmc CO2 gcmc 100 100 0 0 25899 300 -5.9616123 0.1     mol CO2mol tfac_insert ${tfac} full_energy rigid mynvt
fix fgcmc CO2 gcmc 100 100 0 0 25899 300 -5.9616123 0.1     mol CO2mol tfac_insert 1.66666666666667 full_energy rigid mynvt

variable carbon atom "type==4"
group carbon dynamic all var carbon
dynamic group carbon defined
variable nC equal count(carbon)
fix myat1 all ave/time 10 10 1000 v_nC file number_CO2.dat
variable density equal v_nC*(2*15.9994+12.011)/vol/6.022e23*(1e8)^3
fix myat2 all ave/time 10 10 1000 v_density file density_CO2.dat
compute press all pressure thermo_temp
fix myat3 all ave/time 10 100 1000 c_press file pressure_CO2.dat
thermo_style custom step temp etotal v_nC

run ${Nstep}
run 2500000
Ewald initialization ...
  using 12-bit tables for long-range coulomb (src/kspace.cpp:342)
  G vector (1/distance) = 0.24105396
  estimated absolute RMS force accuracy = 0.0041935194
  estimated relative force accuracy = 1.2628659e-05
  KSpace vectors: actual max1d max3d = 1555 9 3429
                  kxmax kymax kzmax  = 9 9 9
Generated 6 of 6 mixed pair_coeff terms from geometric mixing rule
Last active /omp style is kspace_style ewald/omp
0 atoms in group FixGCMC:gcmc_exclusion_group:fgcmc
0 atoms in group FixGCMC:rotation_gas_atoms:fgcmc
WARNING: Neighbor exclusions used with KSpace solver may give inconsistent Coulombic energies (src/neighbor.cpp:658)
Per MPI rank memory allocation (min/avg/max) = 63.75 | 63.75 | 63.75 Mbytes
   Step          Temp          TotEng          v_nC     
      2000   1.2542567     -49822.424      5            
      3000   0.85377951    -49955.576      30           
      4000   0.92973494    -50066.429      48           
      5000   0.75885086    -50165.343      62           
      6000   0.94719838    -50270.851      79           
      7000   0.90271345    -50383.157      97           
      8000   1.1077937     -50471.07       110          
      9000   0.88256784    -50579.315      125          
     10000   1.0214669     -50646.975      135          
     11000   0.50664025    -50705.807      143          
     12000   0.81715149    -50751.961      149          
     13000   0.7578925     -50802.703      156          
     14000   0.79286733    -50883.083      168          
     15000   0.83912058    -50906.968      170          
     16000   0.78744469    -50930.21       173          
     17000   0.55710601    -50957.013      176          
     18000   0.69695195    -51003.861      183          
     19000   0.55005616    -51039.298      187          
     20000   0.82372337    -51073.459      192          
     21000   0.7274213     -51096.733      195          
     22000   0.74920512    -51129.254      200          
     23000   0.58978531    -51150.461      202          
     24000   0.74106264    -51171.373      205          
     25000   0.69183076    -51184.92       207          
     26000   0.92031524    -51200.726      209          
     27000   0.57555394    -51207.691      209          
     28000   0.46900607    -51223.59       211          
     29000   0.70212943    -51259.864      216          
     30000   0.91926822    -51264.918      217          
     31000   0.62634126    -51285.912      219          
     32000   0.68703606    -51301.207      221          
     33000   0.58565884    -51317.908      223          
     34000   0.61170766    -51336.635      226          
     35000   0.77789884    -51338.417      226          
     36000   0.78536657    -51346.073      227          
     37000   0.69385911    -51360.88       229          
     38000   0.66525787    -51385.415      232          
     39000   0.80655727    -51397.575      234          
     40000   1.1106517     -51401.336      235          
     41000   1.1655234     -51415.833      237          
     42000   0.80601264    -51433.069      238          
     43000   0.54784296    -51432.579      238          
     44000   0.43074259    -51437.912      238          
     45000   0.67413058    -51439.981      239          
     46000   0.5498157     -51452.956      240          
     47000   0.47278765    -51468.533      242          
     48000   0.89411866    -51479.211      244          
     49000   0.86173694    -51477.659      244          
     50000   0.64501429    -51488.282      245          
     51000   0.84107026    -51518.92       249          
     52000   0.77785399    -51529.732      250          
     53000   0.70938913    -51541.538      252          
     54000   0.57788998    -51552.033      253          
     55000   0.70931674    -51550.978      253          
     56000   0.65512757    -51563.071      254          
     57000   0.93603455    -51558.388      254          
     58000   0.82932128    -51560.781      254          
     59000   0.67654764    -51563.947      254          
     60000   0.89477019    -51569.048      255          
     61000   0.55633705    -51573.232      255          
     62000   0.76387957    -51573.232      256          
     63000   0.61558518    -51580.9        256          
     64000   0.75637392    -51574.955      256          
     65000   0.70592048    -51580.554      256          
     66000   0.85447755    -51579.405      256          
     67000   0.55188922    -51581.821      256          
     68000   0.60975993    -51577.33       256          
     69000   0.68592997    -51593.319      258          
     70000   0.52450837    -51605.347      259          
     71000   0.68092198    -51616.946      261          
     72000   0.76381313    -51617.766      261          
     73000   0.87415669    -51611.464      261          
     74000   0.55648954    -51622.707      261          
     75000   0.94267104    -51616.245      261          
     76000   0.61672942    -51626.224      262          
     77000   0.69250048    -51627.586      262          
     78000   0.7888398     -51640.039      264          
     79000   0.84566675    -51650.824      266          
     80000   1.2855315     -51649.663      266          
     81000   0.6257429     -51659.626      266          
     82000   0.62035849    -51657.664      266          
     83000   0.71816245    -51658.157      266          
     84000   0.67135719    -51660.992      266          
     85000   0.99284894    -51653.488      266          
     86000   0.63443091    -51665.913      267          
     87000   0.92774002    -51662.997      267          
     88000   0.62893503    -51668.281      267          
     89000   0.44064509    -51678.359      268          
     90000   0.73127526    -51682.657      269          
     91000   0.66589903    -51692.738      270          
     92000   0.51095923    -51691.607      270          
     93000   0.79515887    -51687.195      270          
     94000   0.58997157    -51691.831      270          
     95000   0.89438869    -51692.082      270          
     96000   0.60754618    -51691.923      270          
     97000   0.57314756    -51691.609      270          
     98000   0.64713697    -51693.24       270          
     99000   0.74000296    -51685.567      270          
    100000   0.59368956    -51691.125      270          
    101000   0.64623364    -51692.072      270          
    102000   0.55111862    -51692.772      270          
    103000   0.94247126    -51691.137      271          
    104000   0.83977276    -51694.552      271          
    105000   0.64496081    -51716.631      273          
    106000   0.44091462    -51722.303      273          
    107000   0.72050293    -51712.84       273          
    108000   0.54960475    -51718.864      273          
    109000   0.79706459    -51724.314      274          
    110000   0.76710875    -51724.809      274          
    111000   0.64528312    -51721.988      274          
    112000   0.9141988     -51718.537      274          
    113000   0.75054031    -51736.181      276          
    114000   0.57983581    -51742.791      276          
    115000   0.60674059    -51739.741      276          
    116000   0.70112103    -51741.278      276          
    117000   1.0050603     -51742.665      277          
    118000   0.68853115    -51746.895      277          
    119000   1.0043799     -51743.262      277          
    120000   1.0204097     -51743.611      277          
    121000   0.62519695    -51745.434      277          
    122000   0.48592093    -51749.4        277          
    123000   1.0346336     -51743.349      277          
    124000   0.88393859    -51742.004      277          
    125000   0.58619768    -51745.696      277          
    126000   0.863438      -51742.161      277          
    127000   0.61946451    -51748.782      277          
    128000   0.68535846    -51743.586      277          
    129000   0.91710969    -51749.506      278          
    130000   0.71786449    -51761.608      279          
    131000   0.99099844    -51755.977      279          
    132000   0.68289728    -51762.078      279          
    133000   0.82082705    -51762.685      279          
    134000   0.5842437     -51763.047      279          
    135000   0.6879961     -51762.929      279          
    136000   0.63901735    -51765.614      279          
    137000   0.87893374    -51759.57       279          
    138000   0.5333147     -51767.636      279          
    139000   0.60289041    -51761.578      279          
    140000   0.61198171    -51764.621      279          
    141000   1.0145069     -51757.098      279          
    142000   0.61017517    -51765.52       279          
    143000   0.62821532    -51763.508      279          
    144000   0.55769604    -51764.676      279          
    145000   0.60965325    -51775.164      280          
    146000   0.61711807    -51777.938      281          
    147000   0.83643182    -51780.181      281          
    148000   0.58412259    -51783.585      281          
    149000   0.93158946    -51776.81       281          
    150000   0.48520178    -51782.368      281          
    151000   0.65372391    -51781.843      281          
    152000   0.47590771    -51793.461      282          
    153000   0.60931408    -51789.168      282          
    154000   0.5803332     -51787.494      282          
    155000   1.1328014     -51783.992      282          
    156000   0.62915643    -51786.14       282          
    157000   0.55325853    -51791.469      282          
    158000   0.58332382    -51789.457      282          
    159000   0.55022413    -51799.485      283          
    160000   0.89365241    -51792.902      283          
    161000   0.91918303    -51793.706      283          
    162000   0.48701295    -51799.688      283          
    163000   1.3511358     -51784.588      283          
    164000   0.61123245    -51796.137      283          
    165000   0.8341424     -51796.374      283          
    166000   0.57736885    -51801.736      283          
    167000   0.75078875    -51799.521      284          
    168000   0.897798      -51802.512      284          
    169000   0.57523764    -51803.416      284          
    170000   0.60587269    -51804.158      284          
    171000   0.7691739     -51803.983      284          
    172000   0.66379846    -51801.917      284          
    173000   0.75815711    -51805.282      284          
    174000   0.7957892     -51805.009      284          
    175000   0.52783222    -51807.181      284          
    176000   0.86684737    -51808.34       285          
    177000   0.6882958     -51810.992      285          
    178000   0.84859816    -51810.453      285          
    179000   0.75153011    -51811.083      285          
    180000   0.5463158     -51815.227      285          
    181000   0.58661966    -51815.465      285          
    182000   0.54479057    -51822.195      286          
    183000   1.0370104     -51815.217      286          
    184000   0.75532602    -51820.474      286          
    185000   0.68905188    -51827.709      287          
    186000   0.63882307    -51835.617      288          
    187000   1.1877785     -51826.785      288          
    188000   1.0947865     -51833.138      288          
    189000   0.74886714    -51832.474      288          
    190000   0.66766619    -51837.813      288          
    191000   0.55052941    -51835.166      288          
    192000   0.84553093    -51841.391      289          
    193000   1.2178645     -51842.443      290          
    194000   0.65463734    -51853.145      290          
    195000   0.73512807    -51851.679      290          
    196000   0.9386135     -51849.299      290          
    197000   0.77261668    -51849.71       290          
    198000   0.90742959    -51847.602      290          
    199000   0.55477185    -51855.883      290          
    200000   0.62038747    -51849.932      290          
    201000   0.55954875    -51854.328      290          
    202000   0.85877192    -51849.177      290          
    203000   0.84879826    -51847.745      290          
    204000   0.73722337    -51851.082      290          
    205000   0.83946641    -51847.259      290          
    206000   0.73330811    -51859.027      291          
    207000   0.72482578    -51859.867      291          
    208000   0.99487195    -51853.977      291          
    209000   0.73591601    -51860.381      291          
    210000   0.66185218    -51860.75       291          
    211000   0.51744245    -51862.123      291          
    212000   0.88366036    -51859.022      291          
    213000   0.7129386     -51855.421      291          
    214000   0.84587115    -51855.121      291          
    215000   0.6185246     -51863.41       291          
    216000   0.62638435    -51865.914      292          
    217000   1.0760042     -51862.363      292          
    218000   0.72139301    -51866.586      292          
    219000   0.82231627    -51865.006      292          
    220000   0.50179189    -51872.805      292          
    221000   0.51358457    -51873.445      292          
    222000   0.54887607    -51868.336      292          
    223000   0.45310828    -51873.494      292          
    224000   0.81323988    -51866.25       292          
    225000   1.0104029     -51866.177      292          
    226000   0.70150807    -51870.251      292          
    227000   0.85343801    -51866.589      292          
    228000   0.47674999    -51870.221      292          
    229000   0.90938034    -51865.636      292          
    230000   0.65110011    -51871.433      292          
    231000   1.0151559     -51865.13       292          
    232000   0.59820415    -51875.662      293          
    233000   0.64061137    -51872.776      293          
    234000   0.95243652    -51871.457      293          
    235000   0.81844758    -51875.314      293          
    236000   0.61018717    -51876.849      293          
    237000   0.95402974    -51867.192      293          
    238000   0.59335055    -51875.226      293          
    239000   0.93954893    -51872.117      293          
    240000   0.77956034    -51870.597      293          
    241000   0.59134526    -51876.397      293          
    242000   0.48862679    -51877.768      293          
    243000   0.66336521    -51875.235      293          
    244000   0.74616793    -51872.35       293          
    245000   0.72912797    -51872.048      293          
    246000   0.59879635    -51875.67       293          
    247000   0.82260952    -51871.169      293          
    248000   0.69945033    -51873.48       293          
    249000   0.63030213    -51877.928      293          
    250000   0.66708181    -51873.66       293          
    251000   0.66562399    -51871.418      293          
    252000   0.78770391    -51873.654      293          
    253000   0.87936073    -51873.381      293          
    254000   0.91706216    -51870.425      293          
    255000   0.67845613    -51876.997      293          
    256000   0.64090329    -51873.49       293          
    257000   0.79876566    -51873.502      293          
    258000   0.707319      -51876.115      293          
    259000   1.08122       -51866.583      293          
    260000   1.0527629     -51869.947      293          
    261000   0.89909775    -51871.513      293          
    262000   0.59001416    -51877.644      293          
    263000   0.64801352    -51873.135      293          
    264000   0.59497179    -51878.123      293          
    265000   0.75894255    -51872.462      293          
    266000   0.66655766    -51872.678      293          
    267000   0.91317722    -51870.028      293          
    268000   0.71405068    -51876.649      293          
    269000   0.51335583    -51878.921      293          
    270000   0.80323828    -51868.806      293          
    271000   0.63029515    -51875.207      293          
    272000   0.75268006    -51871.215      293          
    273000   0.53607069    -51878.539      293          
    274000   0.93614414    -51870.962      293          
    275000   0.60006321    -51876.719      293          
    276000   0.71310761    -51878.021      293          
    277000   0.55235067    -51876.979      293          
    278000   0.55826615    -51875.601      293          
    279000   0.67931782    -51873.002      293          
    280000   0.44981705    -51879.214      293          
    281000   0.66641137    -51874.783      293          
    282000   0.89322137    -51870.082      293          
    283000   0.628072      -51874.457      293          
    284000   0.63915005    -51876.445      293          
    285000   0.9218191     -51872.802      293          
    286000   0.6619959     -51872.251      293          
    287000   0.91882285    -51869.054      293          
    288000   0.462364      -51878.737      293          
    289000   0.71209947    -51875.279      293          
    290000   0.57335575    -51878.522      293          
    291000   0.74465504    -51873.606      293          
    292000   0.60948795    -51878.198      293          
    293000   0.85148274    -51871.349      293          
    294000   0.65979467    -51876.672      293          
    295000   0.75421096    -51876.41       293          
    296000   0.65873785    -51874.689      293          
    297000   0.84467746    -51873.073      293          
    298000   0.60229475    -51877.024      293          
    299000   0.72939164    -51883.64       294          
    300000   0.49997084    -51885.177      294          
    301000   0.63934516    -51881.425      294          
    302000   0.49940915    -51885.998      294          
    303000   0.65685421    -51885.785      294          
    304000   0.6049606     -51883.73       294          
    305000   0.934653      -51878.245      294          
    306000   0.77797654    -51884.204      294          
    307000   0.57042795    -51885.855      294          
    308000   1.044074      -51878.094      294          
    309000   0.56047723    -51882.268      294          
    310000   0.60069011    -51886.263      294          
    311000   0.51464877    -51886.967      294          
    312000   0.99222678    -51879.721      294          
    313000   0.84127593    -51881.713      294          
    314000   0.65380478    -51883.286      294          
    315000   0.98201984    -51877.794      294          
    316000   0.68798785    -51882.752      294          
    317000   0.69464024    -51885.572      294          
    318000   0.88812474    -51877.913      294          
    319000   0.7396268     -51880.2        294          
    320000   0.6176135     -51883.766      294          
    321000   0.54159427    -51886.434      294          
    322000   0.65491812    -51883.856      294          
    323000   0.81215255    -51882.791      294          
    324000   0.72920031    -51882.41       294          
    325000   0.89393352    -51880.032      294          
    326000   0.74967674    -51880.911      294          
    327000   0.80611576    -51880.864      294          
    328000   1.1735937     -51878.69       294          
    329000   0.67860829    -51885.385      294          
    330000   0.76671627    -51883.996      294          
    331000   0.91280417    -51881.591      294          
    332000   0.69277967    -51883.862      294          
    333000   0.79658664    -51883.268      294          
    334000   0.96718214    -51880.868      294          
    335000   0.57881246    -51885.416      294          
    336000   0.78829646    -51880.849      294          
    337000   0.59500066    -51885.202      294          
    338000   0.60369118    -51887.446      294          
    339000   0.66228572    -51882.505      294          
    340000   0.89553912    -51882.318      294          
    341000   0.86307957    -51883.754      294          
    342000   0.9399177     -51878.143      294          
    343000   0.55877466    -51887.189      294          
    344000   0.83793006    -51884.289      294          
    345000   0.96086204    -51879.31       294          
    346000   0.49271596    -51884.55       294          
    347000   0.59117522    -51885.529      294          
    348000   0.66115159    -51885.364      294          
    349000   1.0378135     -51881.194      294          
    350000   0.72100487    -51885.584      294          
    351000   0.73619699    -51881.268      294          
    352000   0.86954341    -51883.389      294          
    353000   0.74224649    -51893.599      295          
    354000   0.60787197    -51893.608      295          
    355000   0.85084277    -51890.275      295          
    356000   0.63933254    -51891.781      295          
    357000   0.94655362    -51892.269      295          
    358000   1.01773       -51885.288      295          
    359000   0.91767671    -51885.367      295          
    360000   0.72731839    -51892.625      295          
    361000   0.73050552    -51891.312      295          
    362000   0.578073      -51895.067      295          
    363000   0.66842522    -51890.285      295          
    364000   1.1278834     -51889.077      295          
    365000   0.91325855    -51884.799      295          
    366000   0.73331714    -51889.69       295          
    367000   0.65388695    -51894.546      295          
    368000   0.55610026    -51895.934      295          
    369000   0.5309754     -51895.591      295          
    370000   0.79612638    -51889.736      295          
    371000   0.60350806    -51892.983      295          
    372000   0.49929069    -51895.336      295          
    373000   0.60734947    -51894.018      295          
    374000   0.85957324    -51889.836      295          
    375000   0.67444272    -51890.25       295          
    376000   0.76797203    -51892.576      295          
    377000   0.79500028    -51888.086      295          
    378000   0.58097445    -51893.224      295          
    379000   0.70645983    -51893.803      295          
    380000   0.78784133    -51888.986      295          
    381000   0.59780646    -51896.205      295          
    382000   0.82956081    -51891.692      295          
    383000   0.66571086    -51894.931      295          
    384000   0.65520139    -51894.298      295          
    385000   0.83586702    -51894.214      295          
    386000   0.68224607    -51894.237      295          
    387000   0.59460902    -51893.254      295          
    388000   0.53492037    -51895.593      295          
    389000   0.45868448    -51899.807      295          
    390000   0.77448198    -51891.31       295          
    391000   0.42428163    -51900.177      295          
    392000   0.54264638    -51895.658      295          
    393000   0.64105655    -51893.053      295          
    394000   0.57287742    -51894.906      295          
    395000   0.8328941     -51894.872      295          
    396000   0.6624896     -51891.531      295          
    397000   0.5824006     -51897.034      295          
    398000   0.71150223    -51896.8        295          
    399000   0.48427046    -51896.899      295          
    400000   1.0711129     -51888.898      295          
    401000   0.80681219    -51890.303      295          
    402000   0.58465285    -51895.67       295          
    403000   0.83795252    -51893.73       295          
    404000   1.074429      -51891.497      295          
    405000   0.49739017    -51895.79       295          
    406000   0.77134954    -51894.568      295          
    407000   1.1401727     -51884.194      295          
    408000   0.54139417    -51897.739      295          
    409000   0.90020072    -51889.621      295          
    410000   0.58924478    -51896.259      295          
    411000   0.54912044    -51895.619      295          
    412000   0.7158725     -51896.149      295          
    413000   0.91003629    -51889.314      295          
    414000   0.91468927    -51900.295      296          
    415000   0.58667102    -51903.492      296          
    416000   0.6935817     -51899.914      296          
    417000   0.80391963    -51897.693      296          
    418000   0.50173382    -51906.216      296          
    419000   0.5030005     -51906.359      296          
    420000   0.77514253    -51900.552      296          
    421000   0.4943083     -51906.164      296          
    422000   0.68262218    -51898.866      296          
    423000   0.58267279    -51904.862      296          
    424000   1.048623      -51897.009      296          
    425000   1.0558462     -51899.607      296          
    426000   0.68813164    -51898.678      296          
    427000   0.74861904    -51900.51       296          
    428000   0.70183501    -51904.378      296          
    429000   0.62351286    -51898.79       296          
    430000   0.80841312    -51894.527      296          
    431000   0.59065731    -51902.008      296          
    432000   0.91697698    -51894.451      296          
    433000   0.95554673    -51900.876      296          
    434000   0.63183074    -51903.009      296          
    435000   0.54156716    -51905.165      296          
    436000   1.0104177     -51896.151      296          
    437000   0.56446322    -51902.897      296          
    438000   0.62583764    -51904.641      296          
    439000   0.63623163    -51902.762      296          
    440000   0.78717039    -51898.02       296          
    441000   0.59677207    -51904.164      296          
    442000   0.7831872     -51908.837      297          
    443000   0.6108846     -51912.527      297          
    444000   0.79688887    -51906.389      297          
    445000   0.91590343    -51908.498      297          
    446000   0.71256111    -51904.881      297          
    447000   0.54262377    -51911.725      297          
    448000   0.7017748     -51918.164      298          
    449000   0.62352698    -51916.562      298          
    450000   0.58392392    -51920.393      298          
    451000   0.98900556    -51915.577      298          
    452000   0.66227166    -51920.569      298          
    453000   0.64346663    -51919.036      298          
    454000   0.59627836    -51921.491      298          
    455000   0.89497993    -51915.413      298          
    456000   0.8551524     -51916.908      298          
    457000   0.66035032    -51917.527      298          
    458000   0.53124272    -51929.883      299          
    459000   0.51380451    -51927.878      299          
    460000   0.85094857    -51926.275      299          
    461000   0.4379226     -51930.424      299          
    462000   0.56684424    -51928.583      299          
    463000   0.97247263    -51922.971      299          
    464000   0.53759244    -51926.658      299          
    465000   1.0619535     -51922.265      299          
    466000   0.67759097    -51928.282      299          
    467000   0.8754437     -51923.575      299          
    468000   0.99941349    -51921.644      299          
    469000   0.55208978    -51926.472      299          
    470000   0.78210503    -51933.693      300          
    471000   0.93477559    -51930.3        300          
    472000   0.65578756    -51933.334      300          
    473000   0.69147749    -51937.446      300          
    474000   0.57292649    -51936.976      300          
    475000   1.0304098     -51933.498      300          
    476000   0.65842292    -51933.341      300          
    477000   0.76199535    -51936.522      300          
    478000   0.5777417     -51945.109      301          
    479000   0.57801517    -51941.292      301          
    480000   0.56608564    -51943.604      301          
    481000   0.76519489    -51940.973      301          
    482000   0.52411674    -51947.217      301          
    483000   0.89303235    -51934.832      301          
    484000   0.63092253    -51942.926      301          
    485000   0.49756554    -51946.898      301          
    486000   0.90040703    -51940.989      301          
    487000   0.46060364    -51946.989      301          
    488000   0.91169389    -51940.129      301          
    489000   1.0845078     -51939.984      301          
    490000   0.48848991    -51944.89       301          
    491000   0.55580429    -51945.552      301          
    492000   0.59286962    -51940.482      301          
    493000   0.54616411    -51946.084      301          
    494000   0.64191112    -51941.786      301          
    495000   0.48212254    -51944.264      301          
    496000   0.65969846    -51944.73       301          
    497000   0.88592977    -51939.276      301          
    498000   0.50748318    -51947.249      301          
    499000   0.58746101    -51944.776      301          
    500000   0.67750567    -51944.76       301          
    501000   0.9762598     -51938.324      301          
    502000   0.60227474    -51945.409      301          
    503000   0.50669296    -51945.995      301          
    504000   0.7433939     -51939.164      301          
    505000   0.55987846    -51943.744      301          
    506000   0.82699468    -51939.459      301          
    507000   0.63826099    -51946.499      301          
    508000   0.66930688    -51940.241      301          
    509000   0.81728773    -51938.656      301          
    510000   0.59049101    -51945.503      301          
    511000   0.83760804    -51943.005      301          
    512000   0.52132876    -51945.967      301          
    513000   0.57539407    -51943.315      301          
    514000   0.53922268    -51946.644      301          
    515000   0.56090124    -51945.442      301          
    516000   0.56872767    -51946.157      301          
    517000   0.66615789    -51942.077      301          
    518000   0.48043859    -51948.699      301          
    519000   0.66490835    -51941.065      301          
    520000   0.72538348    -51950.731      302          
    521000   0.4602929     -51956.113      302          
    522000   0.70012403    -51950.197      302          
    523000   0.44657489    -51952.279      302          
    524000   0.65347695    -51952.263      302          
    525000   0.60706029    -51951.662      302          
    526000   0.74746652    -51946.776      302          
    527000   0.55294745    -51952.022      302          
    528000   0.76378251    -51948.838      302          
    529000   0.63460388    -51954.148      302          
    530000   0.59931302    -51950.978      302          
    531000   0.67140978    -51957.697      303          
    532000   0.85068686    -51958.998      303          
    533000   0.59570316    -51961.06       303          
    534000   0.50704333    -51960.404      303          
    535000   0.5674039     -51963.089      303          
    536000   0.86049338    -51955.488      303          
    537000   0.54946926    -51960.826      303          
    538000   0.60372477    -51958.337      303          
    539000   0.89970688    -51957.194      303          
    540000   0.51166301    -51960.424      303          
    541000   0.58747769    -51958.748      303          
    542000   0.53764055    -51961.949      303          
    543000   0.89993959    -51954.407      303          
    544000   0.73918927    -51960.194      303          
    545000   0.89977415    -51955.877      303          
    546000   0.96450285    -51957.038      303          
    547000   0.47554829    -51960.53       303          
    548000   0.57044291    -51961.859      303          
    549000   0.74861974    -51956.083      303          
    550000   0.51004658    -51959.423      303          
    551000   0.68914889    -51958.962      303          
    552000   0.5202241     -51962.98       303          
    553000   0.66101212    -51960.424      303          
    554000   0.63511061    -51957.856      303          
    555000   0.52144647    -51962.193      303          
    556000   0.73737688    -51958.143      303          
    557000   0.95441213    -51956.328      303          
    558000   0.56691836    -51956.092      303          
    559000   0.68361324    -51957.36       303          
    560000   0.59128174    -51961.348      303          
    561000   0.66102943    -51960.704      303          
    562000   0.46120906    -51958.289      303          
    563000   0.45633921    -51964.342      303          
    564000   0.65479752    -51961.105      303          
    565000   0.8953072     -51955.757      303          
    566000   0.97096293    -51955.033      303          
    567000   0.70518692    -51955.395      303          
    568000   0.5087898     -51963.565      303          
    569000   0.55786449    -51964.17       303          
    570000   0.87048473    -51954.522      303          
    571000   0.80441366    -51956.618      303          
    572000   0.80874353    -51957.88       303          
    573000   0.53488771    -51962.76       303          
    574000   0.60808293    -51958.917      303          
    575000   0.70298685    -51957.987      303          
    576000   0.68961018    -51961.891      303          
    577000   0.85781479    -51955.236      303          
    578000   0.44842522    -51962.207      303          
    579000   0.75504724    -51954.846      303          
    580000   0.69359571    -51956.98       303          
    581000   0.4718629     -51962.475      303          
    582000   0.9704097     -51955.967      303          
    583000   0.91170065    -51955.457      303          
    584000   0.66392147    -51958.56       303          
    585000   0.68044203    -51961.967      303          
    586000   0.69725258    -51960.121      303          
    587000   0.9554164     -51956.496      303          
    588000   0.60966447    -51961.287      303          
    589000   0.98213448    -51955.497      303          
    590000   0.87521001    -51958.518      303          
    591000   1.0051944     -51955.61       303          
    592000   0.51809796    -51963.181      303          
    593000   0.61572192    -51956.73       303          
    594000   0.61654387    -51959.949      303          
    595000   0.83101531    -51959.904      303          
    596000   0.78354241    -51960.27       303          
    597000   0.53435279    -51962.312      303          
    598000   0.73372429    -51961.617      303          
    599000   0.68844932    -51957.763      303          
    600000   0.49690616    -51961.453      303          
    601000   1.1211043     -51952.674      303          
    602000   0.75307392    -51960.221      303          
    603000   0.48205478    -51960.985      303          
    604000   0.55600395    -51958.724      303          
    605000   0.45400406    -51964.114      303          
    606000   0.88910216    -51956.503      303          
    607000   0.58046393    -51962.86       303          
    608000   0.62757626    -51961.03       303          
    609000   0.95563325    -51964.833      304          
    610000   0.95275242    -51966.751      304          
    611000   0.87214253    -51962.763      304          
    612000   0.6546021     -51967.699      304          
    613000   0.59697027    -51970.706      304          
    614000   0.7490384     -51967.58       304          
    615000   0.55608286    -51970.736      304          
    616000   0.56195589    -51964.234      304          
    617000   0.58794882    -51968.805      304          
    618000   0.59090298    -51970.397      304          
    619000   0.69475026    -51967.546      304          
    620000   0.86578097    -51967.554      304          
    621000   0.43389194    -51970.407      304          
    622000   0.8084341     -51966.995      304          
    623000   0.82586311    -51965.048      304          
    624000   0.74505681    -51964.157      304          
    625000   0.54192768    -51979.123      305          
    626000   0.6888767     -51978.159      305          
    627000   0.59449586    -51976.409      305          
    628000   0.50864553    -51979.068      305          
    629000   0.69788806    -51972.799      305          
    630000   0.61910644    -51980.301      305          
    631000   0.62796823    -51975.552      305          
    632000   0.72012685    -51972.264      305          
    633000   0.90807975    -51981.452      306          
    634000   0.70386577    -51985.945      306          
    635000   1.0306797     -51977.406      306          
    636000   0.88391685    -51979.593      306          
    637000   0.76008964    -51982.982      306          
    638000   0.57919942    -51984.973      306          
    639000   0.6211257     -51986.778      306          
    640000   0.63516451    -51984.359      306          
    641000   0.46199954    -51989.088      306          
    642000   0.85797397    -51982.793      306          
    643000   0.71811912    -51985.703      306          
    644000   0.8472981     -51981.003      306          
    645000   0.52130422    -51983.941      306          
    646000   0.80138243    -51982.335      306          
    647000   0.55452952    -51987.919      306          
    648000   0.90517217    -51980.734      306          
    649000   0.89668724    -51979.709      306          
    650000   0.80861601    -51979.733      306          
    651000   0.73463142    -51984.948      306          
    652000   0.99734236    -51978.261      306          
    653000   0.49653867    -51987.549      306          
    654000   0.66283872    -51985.845      306          
    655000   0.61064253    -51982.284      306          
    656000   0.726786      -51985.32       306          
    657000   0.70873617    -51985.344      306          
    658000   0.63091323    -51982.489      306          
    659000   0.77342382    -51984.11       306          
    660000   0.43959232    -51989.59       306          
    661000   0.46946587    -51989.313      306          
    662000   0.91006938    -51982.21       306          
    663000   0.55540601    -51984.565      306          
    664000   0.62989148    -51982.55       306          
    665000   0.50994182    -51987.576      306          
    666000   0.59274407    -51982.53       306          
    667000   0.81018498    -51980.936      306          
    668000   0.57331442    -51984.901      306          
    669000   0.69097553    -51983.582      306          
    670000   0.77761189    -51981.861      306          
    671000   0.86955591    -51987.286      307          
    672000   0.57601735    -51990.816      307          
    673000   0.68156648    -51991.563      307          
    674000   0.85750273    -51988.237      307          
    675000   0.5876776     -51992.715      307          
    676000   0.77055504    -51990.33       307          
    677000   0.60500768    -51993.076      307          
    678000   0.33679551    -51999.065      307          
    679000   1.0036178     -51987.814      307          
    680000   0.66150263    -51994.459      307          
    681000   0.61987215    -51992.386      307          
    682000   0.48176969    -51993.919      307          
    683000   0.94540783    -51986.789      307          
    684000   0.50338029    -51992.318      307          
    685000   0.72436712    -51990.762      307          
    686000   0.64666367    -51993.889      307          
    687000   0.46131608    -51996.557      307          
    688000   0.81778247    -51990.537      307          
    689000   0.47046313    -51992.702      307          
    690000   0.57993316    -51994.948      307          
    691000   0.66352893    -51995.067      307          
    692000   0.53886763    -51994.648      307          
    693000   0.98618878    -51984.888      307          
    694000   0.60906733    -51993.054      307          
    695000   0.66922757    -51994.571      307          
    696000   0.71652476    -52000.733      308          
    697000   0.84415205    -51998.224      308          
    698000   0.53082442    -52001.433      308          
    699000   0.58023082    -52003.501      308          
    700000   0.57709279    -52002.448      308          
    701000   0.63656686    -51999.914      308          
    702000   1.2545575     -51994.254      308          
    703000   0.66771019    -52004.113      308          
    704000   0.77807184    -52000.117      308          
    705000   0.93000884    -52000.283      308          
    706000   0.75436205    -52002.017      308          
    707000   0.82316652    -51999.713      308          
    708000   0.72152374    -51998.636      308          
    709000   0.75040918    -52003.727      308          
    710000   0.94430348    -51997.672      308          
    711000   1.1209023     -51995.943      308          
    712000   0.58218526    -52003.014      308          
    713000   0.77183385    -51998.658      308          
    714000   0.55013757    -52002.317      308          
    715000   0.67238793    -52002.937      308          
    716000   0.6517159     -52003.992      308          
    717000   0.57050741    -52005.64       308          
    718000   0.55035805    -52004.187      308          
    719000   0.77060191    -52000.281      308          
    720000   0.71832683    -52003.213      308          
    721000   0.82097136    -51997.689      308          
    722000   0.62952652    -52002.974      308          
    723000   0.74544716    -52002.276      308          
    724000   0.8511164     -52000.401      308          
    725000   0.57421133    -52004.708      308          
    726000   0.86742048    -52000.104      308          
    727000   0.50665273    -52006.869      308          
    728000   0.96294622    -51996.128      308          
    729000   0.82879852    -51997.752      308          
    730000   0.73323783    -52002.607      308          
    731000   0.71854034    -52003.836      308          
    732000   0.73161178    -51999.542      308          
    733000   0.75798574    -52002.934      308          
    734000   0.95679258    -52001.205      308          
    735000   0.63152949    -52004.373      308          
    736000   0.718611      -52010.661      309          
    737000   0.50946938    -52014.228      309          
    738000   0.74403208    -52007.652      309          
    739000   0.58420551    -52012.841      309          
    740000   0.86070346    -52007.83       309          
    741000   0.87575669    -52008.884      309          
    742000   0.70484758    -52010.749      309          
    743000   0.37458115    -52016.954      309          
    744000   1.029164      -52004.111      309          
    745000   0.94710671    -52005.342      309          
    746000   0.58566833    -52010.274      309          
    747000   0.48212068    -52014.497      309          
    748000   0.76776974    -52010.983      309          
    749000   0.63179713    -52013.299      309          
    750000   0.48455767    -52016.772      309          
    751000   1.0101811     -52007.079      309          
    752000   0.80189957    -52007.664      309          
    753000   0.86273427    -52010.478      309          
    754000   0.63678693    -52011.234      309          
    755000   0.67976229    -52011.159      309          
    756000   0.47992227    -52011.513      309          
    757000   0.88923532    -52009.261      309          
    758000   0.75419534    -52012.842      309          
    759000   0.91057473    -52005.363      309          
    760000   0.5776115     -52011.505      309          
    761000   0.74624379    -52008.598      309          
    762000   0.86834106    -52006.041      309          
    763000   0.64813979    -52009.011      309          
    764000   0.82330683    -52006.821      309          
    765000   0.61422326    -52014.114      309          
    766000   1.2107644     -52003.772      309          
    767000   1.0079574     -52001.717      309          
    768000   0.67229677    -52010.904      309          
    769000   0.97819705    -52005.897      309          
    770000   0.76441125    -52010.387      309          
    771000   0.52156799    -52014.028      309          
    772000   0.87843052    -52007.988      309          
    773000   1.0162084     -52003.478      309          
    774000   0.74752834    -52008.355      309          
    775000   0.46695787    -52015.244      309          
    776000   0.69416948    -52011.813      309          
    777000   0.75740412    -52008.961      309          
    778000   0.52016832    -52013.135      309          
    779000   0.62126179    -52013.317      309          
    780000   0.47577716    -52013.405      309          
    781000   0.61020493    -52013.691      309          
    782000   0.91425464    -52008.063      309          
    783000   0.63469863    -52012.414      309          
    784000   0.60386701    -52009.622      309          
    785000   0.55530798    -52015.39       309          
    786000   0.83779762    -52008.123      309          
    787000   0.6018597     -52012.755      309          
    788000   0.75949508    -52007.814      309          
    789000   0.84127761    -52008.183      309          
    790000   0.40624358    -52016.243      309          
    791000   0.73363466    -52012.123      309          
    792000   0.6907099     -52006.489      309          
    793000   0.79058992    -52007.239      309          
    794000   0.80251301    -52010.819      309          
    795000   0.54853069    -52013.481      309          
    796000   0.98491064    -52006.357      309          
    797000   0.73958234    -52009.541      309          
    798000   0.41975884    -52016.65       309          
    799000   0.74036221    -52011.763      309          
    800000   0.89594238    -52007.545      309          
    801000   0.92324049    -52009.388      309          
    802000   0.72549105    -52007.858      309          
    803000   0.63498918    -52013.076      309          
    804000   0.62917714    -52011.256      309          
    805000   0.75318016    -52011.237      309          
    806000   0.75596354    -52012.047      309          
    807000   0.63830093    -52012.304      309          
    808000   0.93737862    -52006.397      309          
    809000   0.66557809    -52009.036      309          
    810000   0.54422681    -52014.573      309          
    811000   0.70859612    -52010.413      309          
    812000   0.70605519    -52010.59       309          
    813000   0.90023723    -52006.9        309          
    814000   0.77769683    -52005.199      309          
    815000   0.67004764    -52008.421      309          
    816000   0.58275521    -52012.38       309          
    817000   0.77751232    -52007.062      309          
    818000   0.5922862     -52012.051      309          
    819000   0.94060866    -52008.63       309          
    820000   0.91833772    -52008.521      309          
    821000   0.63764898    -52008.69       309          
    822000   0.75420883    -52011.483      309          
    823000   0.6077473     -52012.963      309          
    824000   0.97601959    -52004.651      309          
    825000   0.64157411    -52011.852      309          
    826000   0.6353235     -52010.875      309          
    827000   0.93866617    -52005.794      309          
    828000   0.75673498    -52010.474      309          
    829000   0.94318374    -52010.018      309          
    830000   0.54261091    -52007.412      309          
    831000   0.65198143    -52011.38       309          
    832000   0.75078115    -52011.454      309          
    833000   0.94122802    -52007.887      309          
    834000   0.776029      -52010.493      309          
    835000   0.90077642    -52005.776      309          
    836000   0.61438413    -52015.143      309          
    837000   0.59275639    -52019.793      310          
    838000   0.65981756    -52017.444      310          
    839000   0.68079151    -52019.064      310          
    840000   0.81054005    -52015.042      310          
    841000   0.40922182    -52022.734      310          
    842000   0.89821082    -52014.366      310          
    843000   0.46743282    -52018.657      310          
    844000   0.62461253    -52020.7        310          
    845000   0.66148433    -52012.956      310          
    846000   0.5404302     -52022.193      310          
    847000   0.90924437    -52015.657      310          
    848000   1.0610565     -52014.713      310          
    849000   0.54243722    -52021.685      310          
    850000   0.72545004    -52018.418      310          
    851000   0.97220513    -52014.413      310          
    852000   0.56220423    -52019.212      310          
    853000   0.7845989     -52019.197      310          
    854000   0.58957316    -52020.534      310          
    855000   0.60559454    -52017.859      310          
    856000   0.56509293    -52021.789      310          
    857000   0.69270564    -52019.08       310          
    858000   0.58652722    -52022.732      310          
    859000   0.56684381    -52018.653      310          
    860000   0.52456788    -52022.438      310          
    861000   0.77560794    -52017.529      310          
    862000   0.51925869    -52021.019      310          
    863000   0.4433584     -52024.887      310          
    864000   0.53251692    -52020.453      310          
    865000   1.1814762     -52011.32       310          
    866000   0.60920437    -52017.378      310          
    867000   0.78709376    -52016.134      310          
    868000   0.765631      -52020.075      310          
    869000   0.5609151     -52018.939      310          
    870000   0.9274318     -52016.4        310          
    871000   0.89475382    -52016.781      310          
    872000   0.48723853    -52024.764      310          
    873000   1.0483304     -52014.893      310          
    874000   0.73715438    -52015.409      310          
    875000   0.72704393    -52017.722      310          
    876000   0.95249911    -52016.275      310          
    877000   0.52306242    -52021.064      310          
    878000   0.65127381    -52020.396      310          
    879000   0.8111402     -52020.269      310          
    880000   0.53983107    -52019.212      310          
    881000   0.64387854    -52016.666      310          
    882000   0.47442663    -52024.318      310          
    883000   0.73898446    -52020.188      310          
    884000   0.83193695    -52016.778      310          
    885000   0.53913436    -52020.172      310          
    886000   0.73520826    -52020.754      310          
    887000   0.43803323    -52023.92       310          
    888000   0.83050058    -52015.189      310          
    889000   0.92172673    -52016.604      310          
    890000   0.83047238    -52018.203      310          
    891000   0.80611496    -52013.232      310          
    892000   0.47410678    -52026.716      311          
    893000   0.85259518    -52025.126      311          
    894000   0.57806271    -52027.745      311          
    895000   0.7065005     -52027.737      311          
    896000   0.51234558    -52029.374      311          
    897000   0.60441933    -52025.066      311          
    898000   0.75109367    -52025.517      311          
    899000   0.6272104     -52029.19       311          
    900000   0.62856919    -52029.276      311          
    901000   0.67914653    -52025.052      311          
    902000   0.55940179    -52029.646      311          
    903000   0.73515281    -52023.643      311          
    904000   0.55907196    -52027.394      311          
    905000   0.60894163    -52029.023      311          
    906000   0.48836293    -52031.394      311          
    907000   0.66224107    -52027.167      311          
    908000   0.70067292    -52029.296      311          
    909000   0.92547619    -52022.532      311          
    910000   1.050942      -52022.212      311          
    911000   0.87131539    -52022.052      311          
    912000   0.58913427    -52026.51       311          
    913000   0.57592992    -52030.852      311          
    914000   0.6021049     -52026.67       311          
    915000   0.76618209    -52024.298      311          
    916000   1.1277972     -52021.86       311          
    917000   0.5544199     -52025.207      311          
    918000   0.66952099    -52029.001      311          
    919000   0.75943618    -52022.972      311          
    920000   0.58728151    -52029.184      311          
    921000   0.65868412    -52029.077      311          
    922000   0.78761178    -52021.499      311          
    923000   0.83876227    -52023.638      311          
    924000   1.0358573     -52022.647      311          
    925000   0.47697229    -52028.985      311          
    926000   0.51441016    -52025.386      311          
    927000   0.61868527    -52029.027      311          
    928000   0.66756572    -52026.836      311          
    929000   0.8960043     -52025.202      311          
    930000   0.55795763    -52026.159      311          
    931000   0.76570802    -52029.447      311          
    932000   0.4794319     -52032.001      311          
    933000   0.78669564    -52025.064      311          
    934000   0.76781435    -52029.247      311          
    935000   0.63808131    -52025.725      311          
    936000   0.5286379     -52029.915      311          
    937000   0.60994592    -52029.275      311          
    938000   0.93818299    -52022.411      311          
    939000   0.60005488    -52030.899      311          
    940000   0.68330869    -52027.107      311          
    941000   0.53726212    -52030.103      311          
    942000   0.64934146    -52030.001      312          
    943000   0.63322159    -52035.687      312          
    944000   0.55680537    -52037.566      312          
    945000   0.57670448    -52035.604      312          
    946000   0.81084116    -52030.763      312          
    947000   0.44259514    -52041.233      312          
    948000   0.76532282    -52032.097      312          
    949000   0.69430073    -52036.787      312          
    950000   0.57867481    -52034.347      312          
    951000   0.9712804     -52032.746      312          
    952000   0.53461167    -52037.97       312          
    953000   0.68635605    -52038.054      312          
    954000   0.73697747    -52030.966      312          
    955000   0.66466751    -52036.872      312          
    956000   0.80594519    -52036.059      312          
    957000   0.52942495    -52037.72       312          
    958000   0.59511328    -52033.505      312          
    959000   0.59921435    -52037.532      312          
    960000   0.97335845    -52030.107      312          
    961000   0.84576639    -52036.739      312          
    962000   0.8760007     -52030.885      312          
    963000   0.5118107     -52034.524      312          
    964000   0.74849627    -52032.132      312          
    965000   0.57921497    -52034.296      312          
    966000   0.68847938    -52037.357      312          
    967000   0.61402691    -52038.847      312          
    968000   0.63724376    -52036.061      312          
    969000   0.81812927    -52034.01       312          
    970000   0.92385106    -52030.556      312          
    971000   0.74023133    -52033.226      312          
    972000   0.64004331    -52033.31       312          
    973000   0.66914016    -52035.951      312          
    974000   0.56669642    -52036.186      312          
    975000   0.76243674    -52035.399      312          
    976000   0.61180552    -52034.867      312          
    977000   0.90114042    -52028.681      312          
    978000   0.68117875    -52029.988      312          
    979000   0.6563919     -52037.851      312          
    980000   0.64417414    -52034.727      312          
    981000   0.88857224    -52032.913      312          
    982000   0.67343412    -52037.502      312          
    983000   0.99749075    -52030.75       312          
    984000   0.80948892    -52030.09       312          
    985000   0.64068965    -52037.015      312          
    986000   0.9143204     -52033.574      312          
    987000   0.69164922    -52036.939      312          
    988000   0.79160262    -52033.428      312          
    989000   0.84397461    -52028.682      312          
    990000   0.5269019     -52038.186      312          
    991000   0.68306035    -52032.783      312          
    992000   0.60195776    -52036.858      312          
    993000   0.65958817    -52036.056      312          
    994000   0.72725642    -52035.23       312          
    995000   0.98576597    -52029.402      312          
    996000   0.59885089    -52033.833      312          
    997000   0.77258253    -52036.308      312          
    998000   0.58525016    -52037.637      312          
    999000   0.73232777    -52029.421      312          
   1000000   0.6221406     -52037.205      312          
   1001000   0.75147024    -52036.436      312          
   1002000   0.54967977    -52038.895      312          
   1003000   0.75195234    -52034.221      312          
   1004000   0.84264185    -52030.277      312          
   1005000   0.46376557    -52040.208      312          
   1006000   0.83248571    -52035.7        312          
   1007000   0.78974232    -52031.282      312          
   1008000   0.8933774     -52033.846      312          
   1009000   0.51520925    -52035.129      312          
   1010000   0.54890591    -52033.664      312          
   1011000   0.66118337    -52036.4        312          
   1012000   0.44534203    -52039.915      312          
   1013000   0.49311201    -52039.363      312          
   1014000   0.85626079    -52032.545      312          
   1015000   0.56677926    -52037.299      312          
   1016000   0.88572045    -52029.113      312          
   1017000   0.60257822    -52037.185      312          
   1018000   0.72203221    -52037.512      312          
   1019000   0.60716003    -52035.425      312          
   1020000   0.61985355    -52036.071      312          
   1021000   0.45084203    -52040.595      312          
   1022000   0.78504437    -52031.189      312          
   1023000   0.63214538    -52035.666      312          
   1024000   0.98691586    -52030.438      312          
   1025000   0.62955787    -52037.414      312          
   1026000   0.84704926    -52034.219      312          
   1027000   0.79030486    -52034.227      312          
   1028000   0.8256347     -52032.306      312          
   1029000   0.60964055    -52036.619      312          
   1030000   0.86283395    -52031.628      312          
   1031000   0.93953924    -52032.655      312          
   1032000   0.4925486     -52037.688      312          
   1033000   0.57674471    -52034.744      312          
   1034000   0.59388036    -52037.787      312          
   1035000   0.47401306    -52040.145      312          
   1036000   0.90178551    -52029.596      312          
   1037000   0.50831154    -52037.043      312          
   1038000   0.74423103    -52034.743      312          
   1039000   0.67877248    -52034.732      312          
   1040000   0.6671399     -52036.248      312          
   1041000   0.892158      -52032.247      312          
   1042000   0.59925078    -52037.965      312          
   1043000   0.72202056    -52032.91       312          
   1044000   0.56962697    -52039.836      312          
   1045000   0.6745375     -52037.032      312          
   1046000   0.8983439     -52033.336      312          
   1047000   0.96017382    -52028.46       312          
   1048000   0.63005568    -52036.83       312          
   1049000   0.62784787    -52036.516      312          
   1050000   0.68830272    -52032.838      312          
   1051000   0.47604999    -52040.271      312          
   1052000   0.6673035     -52037.676      312          
   1053000   0.87720422    -52032.448      312          
   1054000   0.7790992     -52032.969      312          
   1055000   0.66510165    -52036.449      312          
   1056000   0.50937785    -52037.96       312          
   1057000   0.94305239    -52031.774      312          
   1058000   0.52040316    -52035.24       312          
   1059000   0.66597319    -52035.875      312          
   1060000   0.73265392    -52033.943      312          
   1061000   0.87879557    -52032.569      312          
   1062000   0.53874455    -52038.263      312          
   1063000   0.423155      -52041.177      312          
   1064000   0.53996754    -52039.295      312          
   1065000   0.58237989    -52034.442      312          
   1066000   0.70321083    -52033.014      312          
   1067000   0.56355713    -52037.533      312          
   1068000   0.57875774    -52035.97       312          
   1069000   0.61619853    -52038.16       312          
   1070000   0.99045408    -52027.828      312          
   1071000   0.88220246    -52028.566      312          
   1072000   0.80192326    -52032.988      312          
   1073000   0.67830302    -52033.873      312          
   1074000   0.69398765    -52031.223      312          
   1075000   0.5436497     -52038.671      312          
   1076000   0.79460491    -52035.416      312          
   1077000   0.66866137    -52034.884      312          
   1078000   0.56989427    -52035.702      312          
   1079000   0.62007102    -52037.607      312          
   1080000   0.9665126     -52028.568      312          
   1081000   0.66178247    -52035.549      312          
   1082000   0.61589236    -52036.305      312          
   1083000   0.82650624    -52033.187      312          
   1084000   0.71881351    -52035.584      312          
   1085000   0.66802274    -52032.409      312          
   1086000   0.7383514     -52035.992      312          
   1087000   0.54474633    -52045.169      313          
   1088000   0.98764278    -52037.357      313          
   1089000   0.64466096    -52041.545      313          
   1090000   0.8020805     -52040.469      313          
   1091000   0.58671541    -52045.197      313          
   1092000   0.57903853    -52047.286      313          
   1093000   0.95809087    -52040.773      313          
   1094000   0.69071433    -52040.14       313          
   1095000   0.7837631     -52042.31       313          
   1096000   0.69976565    -52042.135      313          
   1097000   0.71924154    -52039.525      313          
   1098000   0.81530744    -52043.324      313          
   1099000   0.7104736     -52041.61       313          
   1100000   0.58448566    -52045.976      313          
   1101000   0.55882298    -52044.241      313          
   1102000   0.80453242    -52039.528      313          
   1103000   0.60865797    -52043.753      313          
   1104000   0.3924839     -52050.435      313          
   1105000   0.65577405    -52045.271      313          
   1106000   0.92166854    -52040.17       313          
   1107000   0.84237309    -52038.822      313          
   1108000   0.65508187    -52043.175      313          
   1109000   0.81431575    -52041.934      313          
   1110000   0.70379816    -52041.424      313          
   1111000   0.4389825     -52045.439      313          
   1112000   0.99391943    -52037.821      313          
   1113000   0.70281298    -52046.703      313          
   1114000   0.70396255    -52040.279      313          
   1115000   0.58813715    -52044.394      313          
   1116000   0.53502273    -52046.051      313          
   1117000   0.75328507    -52043.742      313          
   1118000   0.96266281    -52039.071      313          
   1119000   0.6694732     -52045.059      313          
   1120000   0.65378952    -52041.551      313          
   1121000   0.61881141    -52044.525      313          
   1122000   0.71982275    -52041.394      313          
   1123000   0.65669013    -52046.885      313          
   1124000   0.87819582    -52042.368      313          
   1125000   0.55391564    -52044.383      313          
   1126000   0.65899675    -52047.719      313          
   1127000   0.8830731     -52042.713      313          
   1128000   0.47609284    -52048.46       313          
   1129000   0.66665415    -52044.427      313          
   1130000   0.6874332     -52040.327      313          
   1131000   0.66741466    -52046.633      313          
   1132000   0.49565409    -52048.967      313          
   1133000   0.81266625    -52041.201      313          
   1134000   0.50700098    -52044.898      313          
   1135000   0.60747297    -52043.001      313          
   1136000   0.56345734    -52044.271      313          
   1137000   0.61698062    -52045.855      313          
   1138000   0.79072482    -52039.868      313          
   1139000   0.5772861     -52044.739      313          
   1140000   0.85195802    -52040.904      313          
   1141000   0.55724028    -52047.122      313          
   1142000   0.6936756     -52043.779      313          
   1143000   0.56347728    -52043.097      313          
   1144000   0.58319982    -52047.596      313          
   1145000   0.61777467    -52042.669      313          
   1146000   0.76200531    -52041.741      313          
   1147000   0.86962724    -52043.823      313          
   1148000   1.0626641     -52037.8        313          
   1149000   0.52518564    -52046.166      313          
   1150000   0.61638036    -52046.815      313          
   1151000   0.52003554    -52048.5        313          
   1152000   0.52381397    -52045.421      313          
   1153000   0.91928551    -52042.105      313          
   1154000   0.70475193    -52042.07       313          
   1155000   0.55438847    -52046.872      313          
   1156000   0.67972143    -52046.777      313          
   1157000   0.71997383    -52044.813      313          
   1158000   1.0981182     -52039.146      313          
   1159000   0.98667933    -52041.562      313          
   1160000   0.57528254    -52045.784      313          
   1161000   0.96775728    -52041.441      313          
   1162000   0.79302282    -52042.763      313          
   1163000   0.95540093    -52041.67       313          
   1164000   0.61317822    -52046.473      313          
   1165000   0.81978535    -52041.453      313          
   1166000   0.75121648    -52045.531      313          
   1167000   0.61917202    -52046.446      313          
   1168000   0.8766737     -52039.063      313          
   1169000   0.90243099    -52037.525      313          
   1170000   0.63561958    -52046.146      313          
   1171000   0.60469169    -52046.454      313          
   1172000   0.49491063    -52048.592      313          
   1173000   0.7128221     -52045.534      313          
   1174000   0.95849596    -52042.378      313          
   1175000   0.42479058    -52048.454      313          
   1176000   0.80783315    -52040.987      313          
   1177000   0.77915957    -52041.857      313          
   1178000   0.61759388    -52047.079      313          
   1179000   0.6412589     -52042.455      313          
   1180000   0.80827004    -52044.122      313          
   1181000   0.76013494    -52039.855      313          
   1182000   0.83790786    -52041.712      313          
   1183000   0.75519941    -52044.316      313          
   1184000   0.78147965    -52043.592      313          
   1185000   0.83910343    -52040.987      313          
   1186000   0.79642069    -52042.503      313          
   1187000   0.60623567    -52041.957      313          
   1188000   0.56843291    -52046.578      313          
   1189000   0.27952494    -52053.188      313          
   1190000   0.65227349    -52044.864      313          
   1191000   0.79645828    -52040.858      313          
   1192000   0.53056885    -52047.913      313          
   1193000   0.57703954    -52043.385      313          
   1194000   0.90926974    -52039.504      313          
   1195000   0.92966025    -52042.437      313          
   1196000   1.0286123     -52035.311      313          
   1197000   0.66585944    -52046.836      313          
   1198000   0.85325422    -52037.48       313          
   1199000   0.81958662    -52040.102      313          
   1200000   0.51787066    -52044.377      313          
   1201000   0.49385186    -52046.447      313          
   1202000   0.81400911    -52042.61       313          
   1203000   0.6322097     -52044.043      313          
   1204000   0.56178868    -52042.225      313          
   1205000   0.55167219    -52045.911      313          
   1206000   0.93600767    -52036.92       313          
   1207000   0.5870918     -52046.486      313          
   1208000   0.57626659    -52045.53       313          
   1209000   0.39853575    -52050.9        313          
   1210000   0.5283862     -52047.549      313          
   1211000   0.81170587    -52042.883      313          
   1212000   0.73246938    -52041.01       313          
   1213000   0.5851735     -52046.898      313          
   1214000   0.69610427    -52044.893      313          
   1215000   0.48138335    -52047.199      313          
   1216000   0.69891076    -52040.678      313          
   1217000   0.58765293    -52046.64       313          
   1218000   0.66496999    -52042.464      313          
   1219000   0.59434469    -52044.656      313          
   1220000   0.92331442    -52037.722      313          
   1221000   0.68621082    -52046.006      313          
   1222000   0.60320605    -52042.103      313          
   1223000   0.50611373    -52047.814      313          
   1224000   0.5363996     -52048.161      313          
   1225000   0.56714861    -52042.899      313          
   1226000   0.85415748    -52038.706      313          
   1227000   0.60313784    -52052.846      314          
   1228000   0.98763474    -52042.889      314          
   1229000   0.57416413    -52049.142      314          
   1230000   0.5226133     -52052.59       314          
   1231000   0.81091016    -52048.84       314          
   1232000   0.88726585    -52049.936      314          
   1233000   0.64001682    -52050.826      314          
   1234000   0.55719695    -52052.415      314          
   1235000   0.74975296    -52051.218      314          
   1236000   0.5494465     -52052.484      314          
   1237000   0.74358408    -52048.876      314          
   1238000   0.58209449    -52047.694      314          
   1239000   0.52817611    -52051.016      314          
   1240000   0.76966104    -52047.568      314          
   1241000   0.62886979    -52049.703      314          
   1242000   0.77930301    -52050.841      314          
   1243000   0.84654244    -52046.837      314          
   1244000   0.96743398    -52043.637      314          
   1245000   0.57128897    -52053.637      314          
   1246000   0.8641875     -52044.096      314          
   1247000   0.44363244    -52052.692      314          
   1248000   0.63454922    -52050.295      314          
   1249000   0.93078955    -52048.37       314          
   1250000   0.68217574    -52048.598      314          
   1251000   0.54571364    -52050.998      314          
   1252000   0.8883981     -52044.714      314          
   1253000   0.65872586    -52053.022      314          
   1254000   0.65068134    -52051.341      314          
   1255000   0.85806343    -52045.76       314          
   1256000   0.69634807    -52048.43       314          
   1257000   0.68327935    -52048.097      314          
   1258000   0.85042624    -52049.101      314          
   1259000   0.58469132    -52051.36       314          
   1260000   0.62535396    -52052.393      314          
[...]
   2176000   0.9092227     -52112.935      322          
   2177000   0.7349716     -52110.987      322          
   2178000   0.80745548    -52110.697      322          
   2179000   0.63045368    -52117.12       322          
   2180000   0.64162915    -52114.727      322          
   2181000   0.71290987    -52115.448      322          
   2182000   1.1457866     -52105.508      322          
   2183000   0.72488102    -52113.173      322          
   2184000   0.73380588    -52114.868      322          
   2185000   0.54165299    -52114.186      322          
   2186000   0.9512774     -52111.272      322          
   2187000   0.83630321    -52113.531      322          
   2188000   1.0850559     -52109.681      322          
   2189000   0.50970569    -52112.831      322          
   2190000   0.56055414    -52116.634      322          
   2191000   0.63938763    -52116.296      322          
   2192000   0.75252933    -52113.067      322          
   2193000   0.60433591    -52113.618      322          
   2194000   0.83348498    -52111.015      322          
   2195000   0.70590399    -52113.366      322          
   2196000   0.6802204     -52111.188      322          
   2197000   0.8651924     -52112.162      322          
   2198000   0.62850322    -52116.761      322          
   2199000   0.76698603    -52109.69       322          
   2200000   0.49842186    -52117.513      322          
   2201000   1.0591452     -52107.762      322          
   2202000   0.63238403    -52114.543      322          
   2203000   0.63152746    -52116.308      322          
   2204000   0.70282186    -52112.446      322          
   2205000   0.9529517     -52109.077      322          
   2206000   0.66320129    -52114.768      322          
   2207000   0.65458719    -52110.52       322          
   2208000   0.56005806    -52116.503      322          
   2209000   0.56574144    -52116.025      322          
   2210000   0.83879334    -52110.868      322          
   2211000   0.51016614    -52116.62       322          
   2212000   0.6030729     -52114.059      322          
   2213000   0.7883507     -52110.488      322          
   2214000   0.76226984    -52112.096      322          
   2215000   0.84485724    -52114.375      322          
   2216000   0.80915421    -52109.451      322          
   2217000   0.71019603    -52115.579      322          
   2218000   0.52579281    -52116.787      322          
   2219000   0.82241397    -52110.599      322          
   2220000   0.73380969    -52114.965      322          
   2221000   0.96532789    -52109.48       322          
   2222000   0.53352625    -52118.256      322          
   2223000   0.74555723    -52111.432      322          
   2224000   0.88459892    -52118.182      323          
   2225000   0.75028477    -52122.06       323          
   2226000   0.7762894     -52117.468      323          
   2227000   0.63678003    -52120.787      323          
   2228000   0.68715562    -52121.643      323          
   2229000   0.7655627     -52120.241      323          
   2230000   0.53282011    -52122.6        323          
   2231000   0.61180571    -52124.264      323          
   2232000   0.88361837    -52118.49       323          
   2233000   0.47247689    -52121.798      323          
   2234000   0.68666176    -52118.764      323          
   2235000   0.69349102    -52121.111      323          
   2236000   0.51512271    -52123.21       323          
   2237000   0.72133136    -52116.144      323          
   2238000   0.60965967    -52120.998      323          
   2239000   0.99698511    -52116.971      323          
   2240000   0.95035991    -52118.649      323          
   2241000   0.605359      -52123.03       323          
   2242000   0.83038289    -52118.043      323          
   2243000   0.52994412    -52124.256      323          
   2244000   0.7192497     -52118.502      323          
   2245000   0.67542962    -52118.701      323          
   2246000   0.96296866    -52117.484      323          
   2247000   1.003144      -52114.058      323          
   2248000   1.0596722     -52113.013      323          
   2249000   0.62341839    -52119.5        323          
   2250000   0.76763351    -52121.259      323          
   2251000   0.69218863    -52120.962      323          
   2252000   0.62769189    -52119.968      323          
   2253000   0.48238666    -52124.601      323          
   2254000   0.89655152    -52118.311      323          
   2255000   0.5836677     -52120.821      323          
   2256000   0.67953133    -52116.475      323          
   2257000   0.4537635     -52125.311      323          
   2258000   0.7853216     -52118.579      323          
   2259000   0.55759179    -52122.457      323          
   2260000   0.57966763    -52121.626      323          
   2261000   1.0951866     -52114.783      323          
   2262000   0.60374868    -52121.973      323          
   2263000   0.60041206    -52124.075      323          
   2264000   0.96004405    -52113.777      323          
   2265000   0.86683366    -52114.249      323          
   2266000   1.0709086     -52116.466      323          
   2267000   0.42837277    -52123.483      323          
   2268000   0.56851232    -52124.049      323          
   2269000   1.210611      -52114.575      323          
   2270000   0.65289265    -52120.222      323          
   2271000   1.0009425     -52115.408      323          
   2272000   0.57811838    -52122.896      323          
   2273000   0.60148435    -52124.066      323          
   2274000   0.51347286    -52121.317      323          
   2275000   0.63467003    -52123.276      323          
   2276000   0.76992338    -52116.756      323          
   2277000   0.5744691     -52122.452      323          
   2278000   0.75833205    -52121.94       323          
   2279000   0.94464024    -52113.256      323          
   2280000   0.84986787    -52120.316      323          
   2281000   0.82341327    -52118.135      323          
   2282000   0.99283216    -52116.27       323          
   2283000   0.60679288    -52119.034      323          
   2284000   0.92210992    -52117.865      323          
   2285000   1.0930384     -52115.255      323          
   2286000   0.63403113    -52117.779      323          
   2287000   0.71574152    -52122.066      323          
   2288000   0.76736524    -52121.303      323          
   2289000   0.97868072    -52116.643      323          
   2290000   0.75971831    -52121.093      323          
   2291000   0.87769399    -52115.339      323          
   2292000   0.54844423    -52124.134      323          
   2293000   0.75915599    -52116.652      323          
   2294000   0.56061785    -52121.406      323          
   2295000   0.54424915    -52123.519      323          
   2296000   0.81737497    -52117.382      323          
   2297000   0.90049541    -52118.058      323          
   2298000   0.72268919    -52119.812      323          
   2299000   0.67574059    -52123.204      323          
   2300000   0.83305517    -52127.824      324          
   2301000   0.57471515    -52130.468      324          
   2302000   0.63967049    -52129.408      324          
   2303000   0.43280743    -52132.019      324          
   2304000   0.67637298    -52128.226      324          
   2305000   0.98048436    -52123.076      324          
   2306000   0.34323856    -52135.934      324          
   2307000   0.60307114    -52132.089      324          
   2308000   0.55566919    -52130.114      324          
   2309000   0.84046788    -52124.735      324          
   2310000   0.49134391    -52133.727      324          
   2311000   0.63949445    -52129.761      324          
   2312000   0.62937773    -52128.962      324          
   2313000   0.81988531    -52129.564      324          
   2314000   0.81843806    -52124.2        324          
   2315000   0.57208889    -52131.467      324          
   2316000   0.68374634    -52130.799      324          
   2317000   0.53385309    -52134.798      324          
   2318000   0.75719242    -52124.541      324          
   2319000   0.67437591    -52130.747      324          
   2320000   0.55216474    -52133.282      324          
   2321000   0.76888739    -52125.898      324          
   2322000   0.63199054    -52131.421      324          
   2323000   0.51207509    -52132.147      324          
   2324000   0.71324594    -52127.064      324          
   2325000   0.55099937    -52129.828      324          
   2326000   0.52038665    -52133.075      324          
   2327000   0.70561887    -52125.409      324          
   2328000   0.5997974     -52131.162      324          
   2329000   0.74054147    -52130.187      324          
   2330000   0.4464766     -52134.623      324          
   2331000   0.72298318    -52125.088      324          
   2332000   0.55949681    -52130.509      324          
   2333000   0.65649792    -52131.291      324          
   2334000   0.68264488    -52128.815      324          
   2335000   0.58829401    -52132.608      324          
   2336000   0.72844181    -52127.065      324          
   2337000   0.6800782     -52127.938      324          
   2338000   0.57390054    -52130.106      324          
   2339000   0.75818919    -52127.614      324          
   2340000   0.62611601    -52126.581      324          
   2341000   0.50581545    -52132.843      324          
   2342000   0.55582404    -52132.219      324          
   2343000   0.98413484    -52123.639      324          
   2344000   0.68723028    -52129.922      324          
   2345000   0.41042946    -52133.22       324          
   2346000   0.61466422    -52129.57       324          
   2347000   0.73270553    -52127.747      324          
   2348000   0.68986733    -52131.449      324          
   2349000   0.48018524    -52133.156      324          
   2350000   0.63245114    -52126.711      324          
   2351000   0.64973844    -52130.469      324          
   2352000   1.0226887     -52127.729      324          
   2353000   0.53616522    -52131.836      324          
   2354000   0.50836706    -52133.989      324          
   2355000   0.85418       -52124.216      324          
   2356000   0.94268779    -52123.896      324          
   2357000   0.54707697    -52130.228      324          
   2358000   0.89642419    -52125.165      324          
   2359000   0.61933631    -52132.86       324          
   2360000   0.76143255    -52128.571      324          
   2361000   0.59424618    -52130.836      324          
   2362000   0.56163983    -52128.962      324          
   2363000   0.55402979    -52133.549      324          
   2364000   0.86897398    -52130.258      324          
   2365000   0.47930675    -52133.283      324          
   2366000   0.72624815    -52129.713      324          
   2367000   0.76252304    -52126.916      324          
   2368000   0.63550616    -52130.746      324          
   2369000   0.50918655    -52133.697      324          
   2370000   0.95861793    -52127.722      324          
   2371000   0.62637971    -52130.362      324          
   2372000   0.67929222    -52129.365      324          
   2373000   0.68387075    -52132.272      324          
   2374000   0.59433799    -52129.961      324          
   2375000   0.71007593    -52132.128      324          
   2376000   0.77987831    -52129.328      324          
   2377000   0.89480265    -52126.125      324          
   2378000   0.55205917    -52130.244      324          
   2379000   0.6749208     -52131.173      324          
   2380000   0.67826314    -52130.606      324          
   2381000   0.78014637    -52129.922      324          
   2382000   0.49157436    -52132.603      324          
   2383000   0.72442015    -52125.878      324          
   2384000   0.67881339    -52126.334      324          
   2385000   0.67929556    -52131.903      324          
   2386000   0.5661942     -52130.943      324          
   2387000   0.65348221    -52132.064      324          
   2388000   0.62878432    -52128.53       324          
   2389000   0.55369128    -52132.176      324          
   2390000   0.96310093    -52127.397      324          
   2391000   0.66581677    -52131.015      324          
   2392000   0.7477299     -52126.55       324          
   2393000   0.90411874    -52123.175      324          
   2394000   0.86706647    -52126.049      324          
   2395000   0.61476345    -52132.424      324          
   2396000   0.60060634    -52132.484      324          
   2397000   0.86520226    -52125.591      324          
   2398000   0.65206225    -52128.353      324          
   2399000   0.80291001    -52128.663      324          
   2400000   0.51615981    -52132.769      324          
   2401000   0.52220347    -52133.377      324          
   2402000   0.75496124    -52130.909      324          
   2403000   0.5482076     -52130.672      324          
   2404000   0.68542737    -52130.686      324          
   2405000   0.58029716    -52131.954      324          
   2406000   0.75898792    -52127.826      324          
   2407000   0.57244182    -52132.978      324          
   2408000   0.6293326     -52132.661      324          
   2409000   0.53108998    -52131.166      324          
   2410000   0.79223613    -52129.215      324          
   2411000   0.7784303     -52126.883      324          
   2412000   0.56548964    -52129.428      324          
   2413000   0.55936051    -52130.527      324          
   2414000   0.71759538    -52129.153      324          
   2415000   0.76162177    -52126.401      324          
   2416000   0.46817193    -52134.624      324          
   2417000   0.86405011    -52127.216      324          
   2418000   0.70326806    -52123.269      324          
   2419000   0.65486748    -52130.625      324          
   2420000   0.56531072    -52132.5        324          
   2421000   0.63516379    -52127.66       324          
   2422000   0.54363967    -52130.155      324          
   2423000   0.67302704    -52131.742      324          
   2424000   0.88834402    -52127.465      324          
   2425000   0.48426219    -52133.443      324          
   2426000   0.60198572    -52127.873      324          
   2427000   0.64172421    -52131.244      324          
   2428000   0.78779361    -52126.529      324          
   2429000   0.5286937     -52133.471      324          
   2430000   0.58565756    -52128.8        324          
   2431000   0.7418191     -52125.8        324          
   2432000   0.67547459    -52127.984      324          
   2433000   0.50223361    -52133.767      324          
   2434000   0.80666679    -52125.433      324          
   2435000   1.039251      -52123.754      324          
   2436000   0.46368545    -52133.877      324          
   2437000   0.7505419     -52125.364      324          
   2438000   0.62231756    -52132.19       324          
   2439000   0.54659373    -52134.994      324          
   2440000   0.52304233    -52130.489      324          
   2441000   0.56277259    -52133.309      324          
   2442000   0.71405913    -52127.542      324          
   2443000   0.66413404    -52127.32       324          
   2444000   1.1114377     -52122.733      324          
   2445000   0.63717736    -52132.774      324          
   2446000   0.87684606    -52124.901      324          
   2447000   0.76093129    -52129.107      324          
   2448000   0.54489924    -52131.622      324          
   2449000   0.57532738    -52132.039      324          
   2450000   0.67594284    -52130.997      324          
   2451000   0.88836414    -52128.369      324          
   2452000   0.4545897     -52131.838      324          
   2453000   0.89736914    -52122.995      324          
   2454000   0.49752104    -52132.581      324          
   2455000   0.60098298    -52131.507      324          
   2456000   0.60386357    -52131.037      324          
   2457000   0.51851461    -52130.605      324          
   2458000   0.82488173    -52127.515      324          
   2459000   0.51534295    -52139.696      325          
   2460000   0.56665192    -52139.135      325          
   2461000   0.72920516    -52133.377      325          
   2462000   0.57930111    -52137.925      325          
   2463000   0.64600402    -52140.979      325          
   2464000   0.7146819     -52139.092      325          
   2465000   0.61273149    -52140.881      325          
   2466000   0.65231995    -52137.156      325          
   2467000   0.58752457    -52140.43       325          
   2468000   0.6966825     -52139.916      325          
   2469000   0.49337344    -52141.313      325          
   2470000   0.69608502    -52137.965      325          
   2471000   0.55689296    -52140.676      325          
   2472000   0.88520557    -52137.591      325          
   2473000   0.76532892    -52137.955      325          
   2474000   0.5190552     -52143.099      325          
   2475000   0.91761223    -52135.359      325          
   2476000   0.60526159    -52141.618      325          
   2477000   0.69998119    -52139.799      325          
   2478000   0.58230729    -52140.815      325          
   2479000   0.89283799    -52137.202      325          
   2480000   0.9587762     -52132.979      325          
   2481000   0.72537177    -52135.763      325          
   2482000   0.6015386     -52141.865      325          
   2483000   0.57773084    -52140.612      325          
   2484000   1.0464431     -52134.077      325          
   2485000   0.79925256    -52140.381      325          
   2486000   0.86861211    -52136.554      325          
   2487000   0.50825496    -52143.533      325          
   2488000   0.6942206     -52140.89       325          
   2489000   1.0625664     -52135.529      325          
   2490000   0.54682183    -52140.633      325          
   2491000   0.74943244    -52138.89       325          
   2492000   0.60064158    -52138.885      325          
   2493000   0.49588775    -52143.863      325          
   2494000   0.62315091    -52140.211      325          
   2495000   0.90200311    -52133.857      325          
   2496000   0.43728891    -52141.621      325          
   2497000   0.93735405    -52135.129      325          
   2498000   0.67862196    -52141.631      325          
   2499000   0.88522426    -52136.584      325          
   2500000   0.75020291    -52136.772      325          
   2501000   0.78305861    -52135.11       325          
   2502000   0.68712492    -52134.291      325          
Loop time of 72401.9 on 8 procs for 2500000 steps with 4431 atoms

Performance: 2.983 ns/day, 8.045 hours/ns, 34.529 timesteps/s, 153.000 katom-step/s
800.0% CPU use with 1 MPI tasks x 8 OpenMP threads

MPI task timing breakdown:
Section |  min time  |  avg time  |  max time  |%varavg| %total
---------------------------------------------------------------
Pair    | 3275.8     | 3275.8     | 3275.8     |   0.0 |  4.52
Bond    | 21.698     | 21.698     | 21.698     |   0.0 |  0.03
Kspace  | 14627      | 14627      | 14627      |   0.0 | 20.20
Neigh   | 290.95     | 290.95     | 290.95     |   0.0 |  0.40
Comm    | 255.86     | 255.86     | 255.86     |   0.0 |  0.35
Output  | 0.62145    | 0.62145    | 0.62145    |   0.0 |  0.00
Modify  | 53894      | 53894      | 53894      |   0.0 | 74.44
Other   |            | 36.56      |            |       |  0.05

Nlocal:           4431 ave        4431 max        4431 min
Histogram: 1 0 0 0 0 0 0 0 0 0
Nghost:          17436 ave       17436 max       17436 min
Histogram: 1 0 0 0 0 0 0 0 0 0
Neighs:         685471 ave      685471 max      685471 min
Histogram: 1 0 0 0 0 0 0 0 0 0

Total # of neighbors = 685471
Ave neighs/atom = 154.69894
Ave special neighs/atom = 0.44008125
Neighbor list builds = 2550063
Dangerous builds = 0
Total wall time: 20:06:52
