LAMMPS (27 Jun 2024)
  using 8 OpenMP thread(s) per MPI task
package omp 0
using multi-threaded neighbor list subroutines
# LAMMPS input script by Simon Gravelle
# For LAMMPS tutorials, see https://lammpstutorials.github.io
# Last tested using the 27Jun2024 LAMMPS version

variable Nstep equal 2500000
variable mu_K equal -2800
variable mu_kcal_mol equal ${mu_K}*0.0019872041
variable mu_kcal_mol equal -2800*0.0019872041
print "mu equal ${mu_kcal_mol}"
mu equal -5.56417148
variable tfac equal 5.0/3.0
variable Nattempt equal 100

units real
boundary p p p
atom_style full
pair_style lj/cut/coul/long 12
kspace_style ewald 1.0e-5
bond_style harmonic
angle_style harmonic
pair_modify mix geometric
special_bonds lj 0.0 0.0 0.0 coul 0.0 0.0 0.0 angle yes

read_data box.data extra/bond/per/atom 2 extra/angle/per/atom 2 extra/special/per/atom 2
Reading data file ...
  orthogonal box = (0.03 -0.061998 -0.327001) to (40.149999 39.538 39.753001)
  1 by 1 by 1 MPI processor grid
  reading atom labelmap ...
  reading bond labelmap ...
  reading angle labelmap ...
  reading atoms ...
  3471 atoms
  reading velocities ...
  3471 velocities
  scanning bonds ...
  3 = max bonds/atom
  scanning angles ...
  3 = max angles/atom
  orthogonal box = (0.03 -0.061998 -0.327001) to (40.149999 39.538 39.753001)
  1 by 1 by 1 MPI processor grid
  reading bonds ...
  10 bonds
  reading angles ...
  5 angles
Finding 1-2 1-3 1-4 neighbors ...
  special bond factors lj:    0        0        0       
  special bond factors coul:  0        0        0       
     2 = max # of 1-2 neighbors
     1 = max # of 1-3 neighbors
     1 = max # of 1-4 neighbors
  10 = # of 1-3 neighbors before angle trim
  10 = # of 1-3 neighbors after angle trim
     4 = max # of special neighbors
  special bonds CPU = 0.001 seconds
  read_data CPU = 0.045 seconds
labelmap atom 1 O 2 Si 3 OC 4 CO
labelmap bond 1 CO-OC
labelmap angle 1 OC-CO-OC

group SiO type O Si
3456 atoms in group SiO
group CO2 type OC CO
15 atoms in group CO2
neigh_modify exclude group SiO SiO

include parm.lmp
# LAMMPS parameter file for rigid CO2 and rigid MFI
# For conversion from K to kcal / mol, multiply
# by Boltzmann = 0.0019872041 kcal / (mol * K)

mass O 15.9994
mass Si 28.0855
mass OC 15.9994
mass CO 12.0110

pair_coeff O O 0.25478 2.708
pair_coeff Si Si 0.03696 0.677
pair_coeff OC OC 0.164858 3.011
pair_coeff CO CO 0.05894 2.789

bond_coeff CO-OC 0.0 1.18 # rigid

angle_coeff OC-CO-OC 0.0 180.0 # rigid

set type O mol 1
Setting atom values ...
  2304 settings made for mol
set type Si mol 2
Setting atom values ...
  1152 settings made for mol
molecule CO2mol CO2.mol
Read molecule template CO2mol:
# LAMMPS molecule file for carbondioxide
  1 molecules
  0 fragments
  3 atoms with max type 4
  2 bonds with max type 1
  1 angles with max type 1
  0 dihedrals with max type 0
  0 impropers with max type 0

fix mynvt CO2 rigid/nvt/small molecule temp 300 300 100 mol CO2mol
  create bodies CPU = 0.001 seconds
  5 rigid bodies with 15 atoms
  1.18 = max distance from body owner to body atom
thermo 1000

run 2000

CITE-CITE-CITE-CITE-CITE-CITE-CITE-CITE-CITE-CITE-CITE-CITE-CITE

Your simulation uses code contributions which should be cited:

- Type Label Framework: https://doi.org/10.1021/acs.jpcb.3c08419

@Article{Gissinger24,
 author = {Jacob R. Gissinger, Ilia Nikiforov, Yaser Afshar, Brendon Waters, Moon-ki Choi, Daniel S. Karls, Alexander Stukowski, Wonpil Im, Hendrik Heinz, Axel Kohlmeyer, and Ellad B. Tadmor},
 title = {Type Label Framework for Bonded Force Fields in LAMMPS},
 journal = {J. Phys. Chem. B},
 year =    2024,
 volume =  128,
 number =  13,
 pages =   {3282–-3297}
}

CITE-CITE-CITE-CITE-CITE-CITE-CITE-CITE-CITE-CITE-CITE-CITE-CITE

Ewald initialization ...
  using 12-bit tables for long-range coulomb (src/kspace.cpp:342)
  G vector (1/distance) = 0.24105396
  estimated absolute RMS force accuracy = 0.0041935194
  estimated relative force accuracy = 1.2628659e-05
  KSpace vectors: actual max1d max3d = 1555 9 3429
                  kxmax kymax kzmax  = 9 9 9
Generated 6 of 6 mixed pair_coeff terms from geometric mixing rule
Last active /omp style is kspace_style ewald/omp
WARNING: Neighbor exclusions used with KSpace solver may give inconsistent Coulombic energies (src/neighbor.cpp:658)
Neighbor list info ...
  update: every = 1 steps, delay = 0 steps, check = yes
  max neighbors/atom: 2000, page size: 100000
  master list distance cutoff = 14
  ghost atom cutoff = 14
  binsize = 7, bins = 6 6 6
  1 neighbor lists, perpetual/occasional/extra = 1 0 0
  (1) pair lj/cut/coul/long/omp, perpetual
      attributes: half, newton on, omp
      pair build: half/bin/newton/omp
      stencil: half/bin/3d
      bin: standard
Per MPI rank memory allocation (min/avg/max) = 63.75 | 63.75 | 63.75 Mbytes
   Step          Temp          E_pair         E_mol          TotEng         Press     
         0   0             -49833.845      0             -49833.845     -163.62111    
      1000   1.0669887     -49838.36       0             -49827.345     -121.84354    
      2000   1.2542567     -49835.372      0             -49822.424     -118.75588    
Loop time of 10.0172 on 8 procs for 2000 steps with 3471 atoms

Performance: 17.250 ns/day, 1.391 hours/ns, 199.656 timesteps/s, 693.006 katom-step/s
799.9% CPU use with 1 MPI tasks x 8 OpenMP threads

MPI task timing breakdown:
Section |  min time  |  avg time  |  max time  |%varavg| %total
---------------------------------------------------------------
Pair    | 0.063687   | 0.063687   | 0.063687   |   0.0 |  0.64
Bond    | 0.0099119  | 0.0099119  | 0.0099119  |   0.0 |  0.10
Kspace  | 9.3809     | 9.3809     | 9.3809     |   0.0 | 93.65
Neigh   | 0.087581   | 0.087581   | 0.087581   |   0.0 |  0.87
Comm    | 0.13991    | 0.13991    | 0.13991    |   0.0 |  1.40
Output  | 0.00012506 | 0.00012506 | 0.00012506 |   0.0 |  0.00
Modify  | 0.31508    | 0.31508    | 0.31508    |   0.0 |  3.15
Other   |            | 0.01998    |            |       |  0.20

Nlocal:           3471 ave        3471 max        3471 min
Histogram: 1 0 0 0 0 0 0 0 0 0
Nghost:          13645 ave       13645 max       13645 min
Histogram: 1 0 0 0 0 0 0 0 0 0
Neighs:           9094 ave        9094 max        9094 min
Histogram: 1 0 0 0 0 0 0 0 0 0

Total # of neighbors = 9094
Ave neighs/atom = 2.6199942
Ave special neighs/atom = 0.0086430424
Neighbor list builds = 15
Dangerous builds = 0

fix fgcmc CO2 gcmc 100 ${Nattempt} 0 0 25899 300 ${mu_kcal_mol} 0.1     mol CO2mol tfac_insert ${tfac} full_energy rigid mynvt
fix fgcmc CO2 gcmc 100 100 0 0 25899 300 ${mu_kcal_mol} 0.1     mol CO2mol tfac_insert ${tfac} full_energy rigid mynvt
fix fgcmc CO2 gcmc 100 100 0 0 25899 300 -5.56417148 0.1     mol CO2mol tfac_insert ${tfac} full_energy rigid mynvt
fix fgcmc CO2 gcmc 100 100 0 0 25899 300 -5.56417148 0.1     mol CO2mol tfac_insert 1.66666666666667 full_energy rigid mynvt

variable carbon atom "type==4"
group carbon dynamic all var carbon
dynamic group carbon defined
variable nC equal count(carbon)
fix myat1 all ave/time 10 10 1000 v_nC file number_CO2.dat
variable density equal v_nC*(2*15.9994+12.011)/vol/6.022e23*(1e8)^3
fix myat2 all ave/time 10 10 1000 v_density file density_CO2.dat
compute press all pressure thermo_temp
fix myat3 all ave/time 10 100 1000 c_press file pressure_CO2.dat
thermo_style custom step temp etotal v_nC

run ${Nstep}
run 2500000
Ewald initialization ...
  using 12-bit tables for long-range coulomb (src/kspace.cpp:342)
  G vector (1/distance) = 0.24105396
  estimated absolute RMS force accuracy = 0.0041935194
  estimated relative force accuracy = 1.2628659e-05
  KSpace vectors: actual max1d max3d = 1555 9 3429
                  kxmax kymax kzmax  = 9 9 9
Generated 6 of 6 mixed pair_coeff terms from geometric mixing rule
Last active /omp style is kspace_style ewald/omp
0 atoms in group FixGCMC:gcmc_exclusion_group:fgcmc
0 atoms in group FixGCMC:rotation_gas_atoms:fgcmc
WARNING: Neighbor exclusions used with KSpace solver may give inconsistent Coulombic energies (src/neighbor.cpp:658)
Per MPI rank memory allocation (min/avg/max) = 63.75 | 63.75 | 63.75 Mbytes
   Step          Temp          TotEng          v_nC     
      2000   1.2542567     -49822.424      5            
      3000   0.98287768    -49954.51       30           
      4000   0.90389081    -50066.529      48           
      5000   0.73385133    -50165.565      62           
      6000   0.94898972    -50279.023      80           
      7000   0.68565181    -50384.265      96           
      8000   1.131432      -50472.757      110          
      9000   1.0223611     -50583.597      126          
     10000   1.1377491     -50657.894      137          
     11000   0.67152913    -50713.154      144          
     12000   0.6377181     -50765.665      151          
     13000   0.66342685    -50815.441      157          
     14000   0.93194679    -50887.478      169          
     15000   0.64599048    -50920.15       172          
     16000   0.91543738    -50935.32       174          
     17000   0.70976884    -50954.22       176          
     18000   0.60822847    -51010.052      184          
     19000   0.61653697    -51048.932      189          
     20000   0.6085614     -51086.744      194          
     21000   0.55597428    -51102.773      196          
     22000   0.73784602    -51132.536      201          
     23000   0.5746994     -51156.273      204          
     24000   1.0361641     -51170.893      206          
     25000   0.73549055    -51187.077      208          
     26000   1.2017076     -51207.173      211          
     27000   0.61115882    -51228.28       213          
     28000   0.68389602    -51229.362      213          
     29000   0.56654743    -51247.023      215          
     30000   0.81662569    -51252.245      216          
     31000   0.52653918    -51264.778      217          
     32000   0.81808947    -51269.618      218          
     33000   0.53326038    -51287.09       220          
     34000   0.61778228    -51302.029      222          
     35000   0.61347018    -51327.286      225          
     36000   0.75210028    -51331.954      226          
     37000   0.70272804    -51347.661      228          
     38000   0.53258938    -51373.429      231          
     39000   1.0597697     -51366.67       231          
     40000   0.79980592    -51371.249      231          
     41000   0.83865847    -51381.667      232          
     42000   0.92328344    -51388.467      233          
     43000   0.52634746    -51396.222      233          
     44000   0.72171394    -51406.325      235          
     45000   0.60280183    -51409.844      235          
     46000   0.69859954    -51410.294      235          
     47000   0.71153431    -51423.505      237          
     48000   0.66703189    -51421.318      237          
     49000   1.3147998     -51424.757      238          
     50000   0.52012947    -51432.822      238          
     51000   0.68669709    -51449.979      241          
     52000   1.0391182     -51457.522      242          
     53000   0.7005463     -51458.828      242          
     54000   0.74874513    -51459.948      242          
     55000   0.65350697    -51460.5        242          
     56000   0.67689966    -51469.82       243          
     57000   0.71428738    -51477.711      244          
     58000   0.85025474    -51479.266      245          
     59000   0.61826054    -51516.717      249          
     60000   0.62691021    -51533.87       251          
     61000   0.60457219    -51537.585      251          
     62000   0.61060618    -51537.581      251          
     63000   0.56339535    -51536.547      251          
     64000   0.68970557    -51535.94       251          
     65000   0.91175674    -51530.608      251          
     66000   0.57035653    -51537.628      251          
     67000   0.61902761    -51545.763      252          
     68000   0.70957734    -51541.057      252          
     69000   0.75722057    -51541.653      252          
     70000   0.98447716    -51539.094      252          
     71000   0.67029218    -51556.567      254          
     72000   0.48087236    -51563.579      254          
     73000   0.55371904    -51559.778      254          
     74000   0.8192843     -51566.095      255          
     75000   0.58630898    -51570.782      255          
     76000   0.60644539    -51567.406      255          
     77000   0.57273783    -51571.198      255          
     78000   0.69530734    -51576.477      256          
     79000   0.93608731    -51580.699      257          
     80000   0.65789914    -51589.508      258          
     81000   0.66066371    -51600.881      259          
     82000   0.71665029    -51602.944      259          
     83000   1.0347402     -51594.673      259          
     84000   0.56655199    -51604.514      259          
     85000   0.77708464    -51598.426      259          
     86000   0.58648488    -51608.322      259          
     87000   1.1112688     -51598.096      259          
     88000   1.2282941     -51594.697      259          
     89000   0.6676372     -51631.832      263          
     90000   0.80703356    -51632.126      263          
     91000   1.0248059     -51638.209      264          
     92000   0.82000456    -51643.184      264          
     93000   0.55476942    -51647.306      264          
     94000   1.126443      -51640.142      264          
     95000   0.69902752    -51653.048      265          
     96000   0.75093228    -51660.502      266          
     97000   0.55072471    -51664.059      266          
     98000   0.6190792     -51661.329      266          
     99000   0.84925149    -51656.361      266          
    100000   0.74976079    -51662.086      266          
    101000   0.90278035    -51658.798      266          
    102000   0.46810371    -51664.143      266          
    103000   0.41812424    -51666.92       266          
    104000   0.74283069    -51658.876      266          
    105000   0.78482245    -51673.911      268          
    106000   0.52081718    -51679.091      268          
    107000   0.64593335    -51677.363      268          
    108000   0.56313549    -51679.963      268          
    109000   0.59164255    -51677.172      268          
    110000   0.57059779    -51679.453      268          
    111000   0.59902672    -51684.465      269          
    112000   0.90725741    -51683.111      269          
    113000   0.5774547     -51695.911      270          
    114000   0.94598938    -51687.224      270          
    115000   0.74058991    -51699.386      271          
    116000   0.5463293     -51702.664      271          
    117000   0.86295424    -51699.988      271          
    118000   0.42647552    -51701.805      271          
    119000   0.76966919    -51697.163      271          
    120000   0.80539369    -51701.954      271          
    121000   0.73202527    -51702.493      271          
    122000   0.77824122    -51697.853      271          
    123000   0.99743941    -51699.273      271          
    124000   0.73542904    -51702.839      271          
    125000   0.75009513    -51698.319      271          
    126000   0.59185551    -51703.112      271          
    127000   0.73540638    -51697.605      271          
    128000   0.53799831    -51702.582      271          
    129000   0.83229786    -51705.136      272          
    130000   0.53999297    -51718.931      273          
    131000   0.99577315    -51715.502      273          
    132000   0.60303591    -51715.838      273          
    133000   0.84349684    -51716.664      273          
    134000   0.51712839    -51721.558      273          
    135000   0.51181488    -51722.485      273          
    136000   0.47334095    -51720.263      273          
    137000   0.66864805    -51714.847      273          
    138000   0.66294057    -51716.967      273          
    139000   0.79693294    -51718.582      273          
    140000   0.67516945    -51719.167      273          
    141000   0.89630476    -51713.904      273          
    142000   0.60788145    -51718.232      273          
    143000   0.60808022    -51725.97       274          
    144000   1.0756834     -51718.13       274          
    145000   0.85762151    -51725.359      274          
    146000   0.9320405     -51720.273      274          
    147000   0.93009808    -51722.653      274          
    148000   0.71784244    -51736.827      275          
    149000   0.50638122    -51739.459      275          
    150000   0.6192478     -51743.561      276          
    151000   0.6709944     -51744.673      276          
    152000   0.78436627    -51740.54       276          
    153000   0.57615806    -51746.134      276          
    154000   0.61311387    -51743.921      276          
    155000   0.57921332    -51752.434      277          
    156000   0.7392818     -51746.837      277          
    157000   0.68153992    -51758.879      278          
    158000   0.68583801    -51759.112      278          
    159000   0.45769755    -51771.127      279          
    160000   0.97220249    -51761.682      279          
    161000   0.55859265    -51779.725      280          
    162000   0.65849843    -51777.051      280          
    163000   0.7820594     -51773.897      280          
    164000   0.50521959    -51779.603      280          
    165000   1.0265498     -51768.414      280          
    166000   0.70386998    -51774.299      280          
    167000   0.60581102    -51778.735      280          
    168000   0.6873622     -51777.168      280          
    169000   0.84340556    -51773.794      280          
    170000   0.55091117    -51779.491      280          
    171000   0.79770774    -51771.902      280          
    172000   0.67270894    -51778.567      280          
    173000   1.237187      -51767.978      280          
    174000   0.69979893    -51777.161      280          
    175000   0.61652743    -51781.582      281          
    176000   0.58074747    -51785.415      281          
    177000   0.81384772    -51779.734      281          
    178000   0.52391701    -51785.418      281          
    179000   0.54662997    -51787.48       281          
    180000   0.63762365    -51787.933      281          
    181000   0.76131422    -51783.352      281          
    182000   0.57640707    -51787.66       281          
    183000   1.0232866     -51779.698      281          
    184000   0.72336945    -51785.042      281          
    185000   1.4559377     -51775.326      281          
    186000   0.53390685    -51784.355      281          
    187000   0.63744175    -51784.282      281          
    188000   0.65304419    -51792.85       282          
    189000   0.8746781     -51790.815      282          
    190000   0.66428833    -51792.891      282          
    191000   0.69229597    -51788.755      282          
    192000   0.5911294     -51794.217      282          
    193000   0.9385165     -51795.243      283          
    194000   0.70714838    -51800.845      283          
    195000   1.005981      -51795.894      283          
    196000   0.57938055    -51801.722      283          
    197000   0.62568471    -51800.189      283          
    198000   0.65674986    -51802.604      283          
    199000   0.60174108    -51802.29       283          
    200000   0.49216237    -51802.857      283          
    201000   0.86429682    -51795.159      283          
    202000   0.63693611    -51800.138      283          
    203000   0.75853429    -51798.026      283          
    204000   0.64295895    -51809.46       284          
    205000   0.74035309    -51814.642      285          
    206000   0.64280947    -51810.803      285          
    207000   0.63676612    -51823.297      286          
    208000   0.85319523    -51817.865      286          
    209000   0.61806564    -51822.893      286          
    210000   0.57287544    -51833.563      287          
    211000   0.72545638    -51830.205      287          
    212000   0.56807626    -51832.382      287          
    213000   1.0155993     -51823.724      287          
    214000   0.82017907    -51828.276      287          
    215000   0.4534234     -51835.045      287          
    216000   0.61270194    -51830.33       287          
    217000   0.56303245    -51834.421      287          
    218000   0.73068396    -51827.598      287          
    219000   0.897855      -51823.562      287          
    220000   0.58992304    -51831.447      287          
    221000   0.98875367    -51826.432      287          
    222000   0.60464218    -51834.373      287          
    223000   0.5381948     -51841.908      288          
    224000   0.86726079    -51837.357      288          
    225000   0.57229479    -51840.616      288          
    226000   0.51470013    -51843.372      288          
    227000   0.54968375    -51837.571      288          
    228000   0.56716682    -51842.531      288          
    229000   0.99072423    -51833.765      288          
    230000   0.77723812    -51838.019      288          
    231000   0.61883445    -51841.864      288          
    232000   0.67367909    -51847.996      289          
    233000   0.69163601    -51843.483      289          
    234000   0.81212799    -51845.01       289          
    235000   0.48786409    -51851.302      289          
    236000   0.85803541    -51843.944      289          
    237000   0.78064627    -51853.393      290          
    238000   0.64746292    -51855.2        290          
    239000   1.0347135     -51850.896      290          
    240000   1.1115044     -51853.37       291          
    241000   0.39578496    -51866.321      291          
    242000   0.53862195    -51872.228      292          
    243000   0.83510122    -51868.014      292          
    244000   0.68500112    -51868.987      292          
    245000   0.39884541    -51874.226      292          
    246000   0.66574049    -51866.208      292          
    247000   0.52065114    -51872.34       292          
    248000   0.88484741    -51865.369      292          
    249000   0.54644114    -51872.212      292          
    250000   0.5149757     -51871.57       292          
    251000   0.99870036    -51864.607      292          
    252000   0.38712066    -51874.879      292          
    253000   0.69395572    -51870.63       292          
    254000   0.69084798    -51870.468      292          
    255000   0.88461333    -51863.339      292          
    256000   0.95560262    -51861.921      292          
    257000   0.78166265    -51868.96       292          
    258000   0.54022938    -51872.299      292          
    259000   0.77738326    -51867.784      292          
    260000   0.92091147    -51871.345      293          
    261000   0.71282729    -51876.744      293          
    262000   0.61638613    -51877.931      293          
    263000   0.58695365    -51878.801      293          
    264000   0.79585445    -51873.975      293          
    265000   0.78589463    -51873.868      293          
    266000   0.62016588    -51874.59       293          
    267000   0.86097233    -51882.672      294          
    268000   0.60004756    -51884.094      294          
    269000   0.91173099    -51879.723      294          
    270000   0.72728153    -51886.35       294          
    271000   1.0255018     -51880.335      294          
    272000   0.64311948    -51893.679      295          
    273000   0.84796579    -51887.746      295          
    274000   0.74105302    -51892.8        295          
    275000   0.9318851     -51889.307      295          
    276000   1.0140639     -51885.536      295          
    277000   0.73265321    -51891.602      295          
    278000   1.0038055     -51885.538      295          
    279000   0.63568328    -51893.016      295          
    280000   0.91579791    -51890.665      295          
    281000   0.52746875    -51901.152      296          
    282000   0.56508584    -51902.817      296          
    283000   0.74467302    -51897.384      296          
    284000   0.61491029    -51904.186      296          
    285000   0.8062157     -51895.788      296          
    286000   0.54564824    -51903.332      296          
    287000   0.53752215    -51904.628      296          
    288000   0.84259078    -51897.431      296          
    289000   0.80644216    -51900.914      296          
    290000   1.0202159     -51895.002      296          
    291000   0.72095655    -51896.828      296          
    292000   0.61337752    -51904.204      296          
    293000   0.78986179    -51897.13       296          
    294000   0.57893128    -51901.502      296          
    295000   0.60363176    -51902.944      296          
    296000   0.66046344    -51900.458      296          
    297000   0.88781814    -51896.221      296          
    298000   0.65653312    -51899.335      296          
    299000   0.45010594    -51913.243      297          
    300000   0.80177503    -51906.922      297          
    301000   0.63779625    -51909.104      297          
    302000   0.5466054     -51913.384      297          
    303000   0.85893453    -51907.168      297          
    304000   0.71456568    -51908.976      297          
    305000   0.51056863    -51908.924      297          
    306000   0.72915869    -51909.212      297          
    307000   0.66355374    -51910.556      297          
    308000   0.63554955    -51909.437      297          
    309000   0.78760054    -51909.123      297          
    310000   0.71264179    -51909.795      297          
    311000   0.76887781    -51909.232      297          
    312000   0.69783225    -51911.009      297          
    313000   0.56928835    -51910.63       297          
    314000   0.618024      -51911.583      297          
    315000   0.63435382    -51908.201      297          
    316000   0.59003625    -51912.185      297          
    317000   0.59662173    -51908.317      297          
    318000   0.59680533    -51911.374      297          
    319000   0.8514082     -51905.84       297          
    320000   0.63441096    -51909.688      297          
    321000   0.75456104    -51909.721      297          
    322000   0.48479966    -51913.345      297          
    323000   0.62680895    -51908.561      297          
    324000   0.67452652    -51911.615      297          
    325000   0.57735323    -51913.479      297          
    326000   0.88298587    -51907.517      297          
    327000   0.79359786    -51904.533      297          
    328000   0.70367188    -51907.87       297          
    329000   0.57147665    -51908.218      297          
    330000   0.92523873    -51904.631      297          
    331000   0.79208074    -51911.253      297          
    332000   1.0008185     -51915.044      298          
    333000   0.57551964    -51919.728      298          
    334000   0.65700666    -51920.474      298          
    335000   0.7460299     -51918.098      298          
    336000   0.66013868    -51917.631      298          
    337000   0.84447154    -51917.746      298          
    338000   0.64349308    -51920.748      298          
    339000   0.59668187    -51917.712      298          
    340000   0.52818771    -51921.887      298          
    341000   0.75514246    -51919.031      298          
    342000   0.6732658     -51919.301      298          
    343000   0.62245513    -51918.416      298          
    344000   0.76081487    -51917.372      298          
    345000   0.57069507    -51921.638      298          
    346000   0.59604882    -51918.374      298          
    347000   0.73418286    -51919.528      298          
    348000   0.61526944    -51916.925      298          
    349000   0.89206989    -51916.039      298          
    350000   1.0978469     -51914.356      298          
    351000   0.61896719    -51920.971      298          
    352000   0.82453751    -51914.934      298          
    353000   0.6657111     -51916.2        298          
    354000   0.83844602    -51917.763      298          
    355000   0.58565669    -51919.339      298          
    356000   0.66234955    -51920.377      298          
    357000   0.51236651    -51923.376      298          
    358000   0.7438681     -51917.845      298          
    359000   0.79040162    -51914.314      298          
    360000   0.60833844    -51919.838      298          
    361000   0.50915424    -51920.544      298          
    362000   0.83040309    -51915.748      298          
    363000   0.80417223    -51918.523      298          
    364000   0.67878007    -51922.66       298          
    365000   0.66297887    -51919.591      298          
    366000   0.93364452    -51916.043      298          
    367000   0.61391514    -51917.318      298          
    368000   0.75067473    -51917.581      298          
    369000   0.77929068    -51915.155      298          
    370000   0.59428766    -51920.018      298          
    371000   0.90352205    -51916.996      298          
    372000   0.75378794    -51919.44       298          
    373000   1.0134234     -51915.687      298          
    374000   0.77833262    -51914.418      298          
    375000   0.60051923    -51920.868      298          
    376000   0.96143502    -51913.33       298          
    377000   0.56416874    -51920.416      298          
    378000   0.54456535    -51921.858      298          
    379000   0.7604502     -51918.321      298          
    380000   0.74504704    -51914.601      298          
    381000   0.62561907    -51921.031      298          
    382000   0.52280399    -51921.87       298          
    383000   0.75619912    -51919.092      298          
    384000   0.79660937    -51918.106      298          
    385000   0.898515      -51915.363      298          
    386000   0.68775394    -51917.279      298          
    387000   0.59625103    -51921.29       298          
    388000   0.726351      -51915.397      298          
    389000   0.77137143    -51920.403      298          
    390000   0.59762692    -51918.968      298          
    391000   0.4741108     -51924.609      298          
    392000   0.62806926    -51921.867      298          
    393000   0.52315787    -51919.395      298          
    394000   0.84183978    -51917.353      298          
    395000   0.78695846    -51915.507      298          
    396000   0.54030617    -51924.043      298          
    397000   0.67368219    -51918.748      298          
    398000   0.52564277    -51919.122      298          
    399000   0.988057      -51916.559      298          
    400000   0.57027778    -51918.305      298          
    401000   0.69500369    -51919.173      298          
    402000   0.86185851    -51918.628      298          
    403000   0.87953641    -51914.841      298          
    404000   0.72364303    -51916.746      298          
    405000   0.6035926     -51917.955      298          
    406000   0.93301585    -51915.949      298          
    407000   0.49002668    -51921.639      298          
    408000   0.75251004    -51916.047      298          
    409000   0.6126413     -51920.999      298          
    410000   0.645648      -51921.986      298          
    411000   0.69432932    -51918.285      298          
    412000   0.79045591    -51920.145      298          
    413000   0.50148943    -51921.251      298          
    414000   0.60584802    -51919.95       298          
    415000   0.78264082    -51916.477      298          
    416000   0.55466433    -51923.531      298          
    417000   0.84740904    -51916.102      298          
    418000   0.69058386    -51916.414      298          
    419000   0.51649174    -51922.112      298          
    420000   0.92525907    -51914.653      298          
    421000   0.61631358    -51918.813      298          
    422000   0.71711938    -51916.513      298          
    423000   0.65572065    -51919.778      298          
    424000   0.55108637    -51923.602      298          
    425000   0.82280834    -51917.472      298          
    426000   0.73789639    -51918.531      298          
    427000   0.5572849     -51922.41       298          
    428000   0.83344386    -51914.894      298          
    429000   0.55242369    -51922.99       298          
    430000   0.75970241    -51918.799      298          
    431000   0.48180455    -51920.696      298          
    432000   0.57722478    -51919.083      298          
    433000   0.92408214    -51917.507      298          
    434000   0.66963767    -51920.196      298          
    435000   0.75011363    -51920.934      298          
    436000   0.93127861    -51916.104      298          
    437000   0.57679708    -51918.456      298          
    438000   0.48744195    -51921.551      298          
    439000   0.63621259    -51918.796      298          
    440000   0.77248721    -51919.86       298          
    441000   0.71594228    -51918.676      298          
    442000   0.58853053    -51922.792      298          
    443000   0.54167891    -51924.985      298          
    444000   0.74958163    -51917.706      298          
    445000   0.71753455    -51920.517      298          
    446000   0.51934894    -51921.149      298          
    447000   0.47453232    -51922.458      298          
    448000   0.55352553    -51921.458      298          
    449000   0.75103407    -51919.26       298          
    450000   0.49627057    -51922.683      298          
    451000   0.91239847    -51915.1        298          
    452000   0.77837501    -51916.654      298          
    453000   0.89824142    -51918.292      298          
    454000   0.78138048    -51919.948      298          
    455000   0.55994873    -51927.68       299          
    456000   0.60491842    -51929.739      299          
    457000   0.76600336    -51924.522      299          
    458000   0.36978237    -51931.523      299          
    459000   0.73538228    -51927.161      299          
    460000   0.77921188    -51927.39       299          
    461000   0.90959658    -51923.529      299          
    462000   0.48167265    -51930.853      299          
    463000   0.6526664     -51929.123      299          
    464000   0.80603417    -51923.567      299          
    465000   0.71443192    -51922.986      299          
    466000   0.57339536    -51928.36       299          
    467000   0.53837547    -51929.505      299          
    468000   0.67485465    -51924.057      299          
    469000   0.62109091    -51928.559      299          
    470000   0.61425981    -51929.632      299          
    471000   0.93149755    -51922.428      299          
    472000   0.66031426    -51927.318      299          
    473000   0.49882597    -51928.152      299          
    474000   0.64120904    -51925.964      299          
    475000   0.34990431    -51933.973      299          
    476000   0.85923647    -51925.487      299          
    477000   0.44460596    -51930.275      299          
    478000   0.54212818    -51937.224      300          
    479000   0.72931655    -51934.37       300          
    480000   0.71056042    -51930.937      300          
    481000   0.76473531    -51930.588      300          
    482000   0.55600902    -51937.461      300          
    483000   0.83324902    -51935.788      300          
    484000   0.67744306    -51933.25       300          
    485000   0.64271126    -51937.559      300          
    486000   0.89459717    -51932.86       300          
    487000   0.76368736    -51931.342      300          
    488000   0.64994227    -51932.448      300          
    489000   0.87501049    -51931.101      300          
    490000   0.69051588    -51929.338      300          
    491000   0.83542282    -51934.659      300          
    492000   0.56404019    -51938.383      300          
    493000   0.80306117    -51936.52       300          
    494000   0.83343805    -51931.289      300          
    495000   0.58678405    -51938.015      300          
    496000   0.46059371    -51937.893      300          
    497000   0.57392403    -51936.874      300          
    498000   0.64692427    -51936.552      300          
    499000   0.5276649     -51938.381      300          
    500000   1.1170938     -51929.26       300          
    501000   0.5562173     -51936.332      300          
    502000   0.7612073     -51933.121      300          
    503000   0.46879431    -51940.487      300          
    504000   0.59317508    -51937.607      300          
    505000   0.58239217    -51935.971      300          
    506000   0.61288941    -51933.354      300          
    507000   0.5447859     -51939.047      300          
    508000   0.79542033    -51934.532      300          
    509000   0.79739613    -51932.486      300          
    510000   0.92810053    -51930.19       300          
    511000   0.60015084    -51936.901      300          
    512000   0.54636195    -51936.381      300          
    513000   0.60690775    -51939.576      300          
    514000   0.95983577    -51934.478      300          
    515000   0.68163419    -51936.321      300          
    516000   0.72189573    -51936.293      300          
    517000   0.7251344     -51932.853      300          
    518000   0.5273364     -51938.35       300          
    519000   0.56059279    -51934.838      300          
    520000   0.51648995    -51944.365      301          
    521000   0.5702515     -51947.363      301          
    522000   0.50782677    -51944.125      301          
    523000   0.66940137    -51942.514      301          
    524000   0.62158533    -51944.018      301          
    525000   0.55639333    -51946.728      301          
    526000   0.656136      -51946.196      301          
    527000   0.50333105    -51944.195      301          
    528000   1.1818462     -51938.637      301          
    529000   0.94320643    -51937.96       301          
    530000   0.97042398    -51936.149      301          
    531000   0.73369591    -51944.751      301          
    532000   0.52172427    -51946.886      301          
    533000   0.50842608    -51947.272      301          
    534000   0.86909481    -51941.788      301          
    535000   0.5209051     -51943.286      301          
    536000   0.93361888    -51938.387      301          
    537000   0.41810542    -51944.654      301          
    538000   0.81417831    -51944.761      301          
    539000   0.51927634    -51945.674      301          
    540000   0.53420373    -51947.107      301          
    541000   0.66135674    -51946.576      301          
    542000   0.65158898    -51941.427      301          
    543000   0.61056614    -51945.692      301          
    544000   0.71984992    -51945.762      301          
    545000   0.85571619    -51940.633      301          
    546000   0.82314185    -51941.216      301          
    547000   0.57443917    -51945.019      301          
    548000   0.63219824    -51943.192      301          
    549000   0.44333885    -51947.451      301          
    550000   0.79421714    -51942.541      301          
    551000   0.56858655    -51943.143      301          
    552000   0.68937883    -51944.193      301          
    553000   0.4893585     -51945.08       301          
    554000   0.6522152     -51941.853      301          
    555000   0.54668215    -51945.491      301          
    556000   0.70621257    -51940.545      301          
    557000   0.55565352    -51944.489      301          
    558000   0.61048765    -51942.953      301          
    559000   0.81021562    -51937.928      301          
    560000   0.61511655    -51946.568      301          
    561000   0.43314934    -51949.816      301          
    562000   0.65473532    -51946.939      301          
    563000   0.72721762    -51941.233      301          
    564000   0.62233172    -51941.985      301          
    565000   1.1959256     -51936.927      301          
    566000   0.5898418     -51945.107      301          
    567000   0.82862907    -51942.03       301          
    568000   0.57220258    -51942.519      301          
    569000   0.63679929    -51942.105      301          
    570000   0.64586039    -51944.843      301          
    571000   0.78223506    -51942.774      301          
    572000   0.9391998     -51938.074      301          
    573000   0.98995098    -51940.272      301          
    574000   0.48571082    -51948.322      301          
    575000   0.96308714    -51938.745      301          
    576000   0.62342804    -51945.245      301          
    577000   0.81213702    -51941.489      301          
    578000   0.63920824    -51939.848      301          
    579000   0.91721002    -51941.452      301          
    580000   0.48033557    -51946.658      301          
    581000   0.69365503    -51945.407      301          
    582000   0.67878897    -51944.099      301          
    583000   0.56724173    -51941.873      301          
    584000   0.71421432    -51939.393      301          
    585000   0.55383505    -51945.015      301          
    586000   0.63554366    -51952.924      302          
    587000   0.57534325    -51953.82       302          
    588000   0.74559847    -51947.616      302          
    589000   0.74077172    -51951.625      302          
    590000   0.92054569    -51945.779      302          
    591000   0.61846717    -51952.2        302          
    592000   0.97954724    -51946.47       302          
    593000   0.66059042    -51951.459      302          
    594000   0.91956932    -51948.051      302          
    595000   0.6474706     -51957.644      303          
    596000   0.76402259    -51961.927      304          
    597000   0.76545883    -51965.408      304          
    598000   0.48424562    -51967.49       304          
    599000   0.53208379    -51970.57       304          
    600000   0.89329433    -51962.048      304          
    601000   0.63060916    -51965.783      304          
    602000   0.71533843    -51963.039      304          
    603000   0.87653002    -51963.582      304          
    604000   0.52120054    -51966.208      304          
    605000   0.63120791    -51964.001      304          
    606000   0.48519698    -51971.222      304          
    607000   0.6153734     -51969.588      304          
    608000   0.55673179    -51966.717      304          
    609000   1.3551401     -51969.767      305          
    610000   1.0049975     -51969.809      305          
    611000   0.65997591    -51977.201      305          
    612000   0.90650483    -51973.976      305          
    613000   0.88932147    -51973.062      305          
    614000   0.7336876     -51971.15       305          
    615000   0.52681895    -51978.074      305          
    616000   0.87709455    -51971.994      305          
    617000   0.74504799    -51976.067      305          
    618000   0.75115742    -51974.981      305          
    619000   0.73096764    -51974.522      305          
    620000   0.6625709     -51975.944      305          
    621000   0.77488463    -51970.685      305          
    622000   0.96932306    -51968.63       305          
    623000   0.54670843    -51977.536      305          
    624000   0.53465626    -51975.03       305          
    625000   0.60807154    -51974.887      305          
    626000   1.1130971     -51968.712      305          
    627000   0.61640227    -51975.479      305          
    628000   0.5324364     -51978.949      305          
    629000   0.68395319    -51974.226      305          
    630000   0.60179846    -51976.963      305          
    631000   0.42172442    -51977.95       305          
    632000   1.0044148     -51969.341      305          
    633000   0.45533819    -51975.789      305          
    634000   0.76026339    -51972.864      305          
    635000   1.1498111     -51967.992      305          
    636000   0.74913032    -51975.471      305          
    637000   0.76165968    -51971.705      305          
    638000   0.58807694    -51976.244      305          
    639000   0.54695166    -51976.577      305          
    640000   0.87401028    -51970.805      305          
    641000   0.62720058    -51976.567      305          
    642000   0.85968186    -51973.986      305          
    643000   0.68947131    -51973.502      305          
    644000   0.62683501    -51977.28       305          
    645000   0.60980442    -51977.85       305          
    646000   0.66201902    -51974.833      305          
    647000   0.95236023    -51973.179      305          
    648000   0.52603257    -51977.178      305          
    649000   0.64847422    -51977.33       305          
    650000   0.72692348    -51974.832      305          
    651000   0.59549322    -51974.576      305          
    652000   0.88230079    -51969.692      305          
    653000   0.832952      -51981.118      306          
    654000   0.58583441    -51980.633      306          
    655000   0.48719112    -51986.815      306          
    656000   0.48951363    -51988.472      306          
    657000   0.80409061    -51980.114      306          
    658000   0.84786849    -51983.022      306          
    659000   0.92076062    -51978.51       306          
    660000   0.6807167     -51990.576      307          
    661000   0.69863103    -51993.843      307          
    662000   0.7999342     -51988.642      307          
    663000   0.72456185    -52001.856      308          
    664000   0.60629049    -52000.242      308          
    665000   1.1751854     -51993.242      308          
    666000   0.77869763    -51997.007      308          
    667000   0.70626074    -52003.607      308          
    668000   0.59041451    -52004.389      308          
    669000   0.95072856    -51998.719      308          
    670000   0.62241256    -52003.325      308          
    671000   0.93660225    -51996.81       308          
    672000   0.6286091     -52004.384      308          
    673000   0.75129553    -52001.85       308          
    674000   0.60482288    -52000.444      308          
    675000   0.5802467     -52003.357      308          
    676000   0.99913446    -51995.64       308          
    677000   0.48734652    -52013.654      309          
    678000   0.75856611    -52006.999      309          
    679000   0.63345198    -52007.295      309          
    680000   0.7339531     -52008.039      309          
    681000   0.70153931    -52010.813      309          
    682000   0.72699913    -52009.239      309          
    683000   0.61006634    -52009.857      309          
    684000   0.79614675    -52004.424      309          
    685000   0.68528262    -52011.526      309          
    686000   0.602515      -52009.276      309          
    687000   0.66184009    -52011.734      309          
    688000   0.57325543    -52013.701      309          
    689000   0.79613867    -52019.702      310          
    690000   0.76130288    -52019.92       310          
    691000   0.69318742    -52019.347      310          
    692000   0.90411334    -52017.944      310          
    693000   0.71924181    -52020.334      310          
    694000   0.84825619    -52014.436      310          
    695000   0.83972109    -52016.707      310          
    696000   0.53993346    -52018.822      310          
    697000   0.59422485    -52021.714      310          
    698000   0.98572754    -52013.494      310          
    699000   0.70351944    -52015.903      310          
    700000   1.0534159     -52011.911      310          
    701000   0.72518087    -52019.349      310          
    702000   0.5091489     -52018.499      310          
    703000   0.55375553    -52017.566      310          
    704000   0.50878301    -52022.105      310          
    705000   0.7616928     -52013.778      310          
    706000   0.63413158    -52020.576      310          
    707000   0.57729108    -52020.271      310          
    708000   0.92205665    -52014.305      310          
    709000   0.71976457    -52020.609      310          
    710000   0.69557141    -52020.921      310          
    711000   0.79336488    -52014.332      310          
    712000   0.86695101    -52018.272      310          
    713000   0.8457032     -52015.454      310          
    714000   0.60585681    -52021.486      310          
    715000   0.68020094    -52016.518      310          
    716000   0.58548763    -52020.525      310          
    717000   0.61930711    -52021.374      310          
    718000   0.79116018    -52018.547      310          
    719000   0.60016003    -52022.221      310          
    720000   0.85394265    -52015.535      310          
    721000   1.155799      -52014.667      310          
    722000   0.6681643     -52018.527      310          
    723000   0.9220915     -52016.397      310          
    724000   0.58904604    -52021.916      310          
    725000   0.63251819    -52021.856      310          
    726000   0.82087706    -52013.649      310          
    727000   0.63937009    -52017.461      310          
    728000   1.0282037     -52015.514      310          
    729000   0.53031636    -52029.973      311          
    730000   0.7212615     -52023.722      311          
    731000   0.55884259    -52028.917      311          
    732000   0.63314247    -52026.832      311          
    733000   0.58982993    -52027.248      311          
    734000   0.9901116     -52023.111      311          
    735000   0.73788531    -52024.203      311          
    736000   0.93651304    -52025.707      311          
    737000   0.42562209    -52032.248      311          
    738000   0.64283542    -52026.92       311          
    739000   0.82800443    -52026.069      311          
    740000   0.90862607    -52021.289      311          
    741000   0.69452388    -52022.848      311          
    742000   0.67326983    -52027.637      311          
    743000   0.53441671    -52030.516      311          
    744000   0.66033167    -52027.731      311          
    745000   0.51330907    -52028.938      311          
    746000   0.80799755    -52022          311          
    747000   0.75811726    -52024.037      311          
    748000   0.64937796    -52029.631      311          
    749000   1.0237626     -52020.956      311          
    750000   0.77338805    -52022.941      311          
    751000   1.051957      -52023.141      311          
    752000   0.76323585    -52022.884      311          
    753000   0.69377889    -52023.631      311          
    754000   0.90510615    -52025.99       311          
    755000   0.61972796    -52029.295      311          
    756000   0.75039742    -52025.461      311          
    757000   0.87295591    -52026.501      311          
    758000   0.72020541    -52023.1        311          
    759000   0.86236414    -52025.182      311          
    760000   0.59078639    -52027.432      311          
    761000   0.87410248    -52025.71       311          
    762000   0.7051323     -52023.845      311          
    763000   0.70199031    -52027.462      311          
    764000   0.74493592    -52028.263      311          
    765000   0.89491263    -52024.794      311          
    766000   0.61408619    -52027.814      311          
    767000   0.6683474     -52022.905      311          
    768000   0.54197582    -52031.488      311          
    769000   0.75844764    -52026.27       311          
    770000   0.51892647    -52029.829      311          
    771000   0.63709018    -52028.686      311          
    772000   0.81026395    -52027.538      311          
    773000   0.76072605    -52026.883      311          
    774000   0.79254889    -52022.154      311          
    775000   0.58260819    -52028.426      311          
    776000   0.96515067    -52020.542      311          
    777000   0.86426641    -52025.93       311          
    778000   0.49459683    -52026.469      311          
    779000   0.74558595    -52027.06       311          
    780000   0.79597098    -52025.394      311          
    781000   0.56874673    -52029.045      311          
    782000   0.58805117    -52030.461      311          
    783000   0.77727918    -52027.133      311          
    784000   0.63202313    -52026.972      311          
    785000   0.58432619    -52027.306      311          
    786000   1.0759356     -52020.327      311          
    787000   0.66926391    -52024.167      311          
    788000   1.0030894     -52024.741      311          
    789000   0.95608197    -52026.457      311          
    790000   0.92622775    -52022.708      311          
    791000   1.0545585     -52018.529      311          
    792000   0.49705263    -52030.3        311          
    793000   0.61662827    -52024.35       311          
    794000   0.71288448    -52028.201      311          
    795000   0.87497636    -52024.763      311          
    796000   0.91378492    -52022.439      311          
    797000   0.50514023    -52028.7        311          
    798000   0.60041599    -52024.369      311          
    799000   0.59628791    -52029.5        311          
    800000   0.72850251    -52021.178      311          
    801000   0.620162      -52026.513      311          
    802000   0.5824641     -52028.945      311          
    803000   0.5427913     -52031.559      311          
    804000   0.58183991    -52029.025      311          
    805000   1.340384      -52018.635      311          
    806000   0.6347218     -52025.416      311          
    807000   0.68150944    -52022.66       311          
    808000   0.68405981    -52028.734      311          
    809000   0.87144587    -52024.12       311          
    810000   0.83707845    -52023.155      311          
    811000   1.1392068     -52021.54       311          
    812000   0.61687481    -52026.003      311          
    813000   0.57704134    -52027.796      311          
    814000   0.60938936    -52024.338      311          
    815000   0.46437147    -52030.354      311          
    816000   0.92708245    -52025.007      311          
    817000   0.88124356    -52021.912      311          
    818000   0.57818836    -52027.421      311          
    819000   0.75197113    -52026.092      311          
    820000   0.9155969     -52022.756      311          
    821000   0.57130715    -52027.646      311          
    822000   0.61036079    -52025.108      311          
    823000   0.59083325    -52029.364      311          
    824000   0.83709392    -52023.871      311          
    825000   0.92410755    -52025.551      311          
    826000   0.5522282     -52029.228      311          
    827000   0.75551788    -52027.962      311          
    828000   0.79120573    -52021.489      311          
    829000   0.56688474    -52029.85       311          
    830000   0.79834489    -52022.91       311          
    831000   0.55196671    -52028.192      311          
    832000   0.72661681    -52025.99       311          
    833000   0.74905142    -52025.009      311          
    834000   0.51004631    -52027.598      311          
    835000   1.0936222     -52022.089      311          
    836000   0.68424485    -52025.91       311          
    837000   1.0418163     -52024.31       311          
    838000   0.38981037    -52033.378      311          
    839000   0.76102064    -52027.589      311          
    840000   0.8777603     -52022.679      311          
    841000   0.6518037     -52028.151      311          
    842000   0.92570828    -52024.064      311          
    843000   0.72842309    -52028.246      311          
    844000   0.7478289     -52024.017      311          
    845000   0.69550169    -52028.846      311          
    846000   0.82590145    -52025.937      311          
    847000   0.87702696    -52022.327      311          
    848000   0.58487656    -52029.578      311          
    849000   0.82193539    -52026.799      311          
    850000   0.61067181    -52027.978      311          
    851000   0.87749427    -52026.078      311          
    852000   0.6573561     -52024.537      311          
    853000   0.57086395    -52029.583      311          
    854000   0.676145      -52025.949      311          
    855000   1.1578149     -52021.737      311          
    856000   0.67527784    -52024.426      311          
    857000   0.54023368    -52029.607      311          
    858000   0.88252098    -52025.82       311          
    859000   0.45820788    -52029.813      311          
    860000   0.87211167    -52025.287      311          
    861000   0.64168645    -52025.838      311          
    862000   0.55781196    -52026.145      311          
    863000   0.75028024    -52027.689      311          
    864000   0.75779411    -52027.223      311          
    865000   0.92044148    -52020.581      311          
    866000   0.67818604    -52025.126      311          
    867000   0.65891054    -52025.759      311          
    868000   0.62770708    -52028.064      311          
    869000   0.90126678    -52024.477      311          
    870000   0.73025853    -52028.002      311          
    871000   0.56840981    -52030.55       311          
    872000   0.72125303    -52023.8        311          
    873000   0.48902527    -52030.29       311          
    874000   0.81839397    -52024.775      311          
    875000   0.5599272     -52027.265      311          
    876000   0.59379578    -52028.286      311          
    877000   0.4692748     -52031.519      311          
    878000   0.60495651    -52027.247      311          
    879000   0.65325276    -52028.375      311          
    880000   0.85503108    -52024.843      311          
    881000   0.66015718    -52024.253      311          
    882000   1.2601363     -52020.022      311          
    883000   0.60882222    -52026.331      311          
    884000   0.84946798    -52023.668      311          
    885000   0.63510432    -52026.539      311          
    886000   0.66086248    -52025.361      311          
    887000   0.59463227    -52029.586      311          
    888000   0.78319573    -52025.174      311          
    889000   0.54198544    -52027.887      311          
    890000   0.71129513    -52027.535      311          
    891000   0.58678786    -52029.284      311          
    892000   0.48158736    -52030.97       311          
    893000   1.1592564     -52019.939      311          
    894000   0.61948954    -52029.781      311          
    895000   0.83973754    -52021.226      311          
    896000   0.83794754    -52021.294      311          
    897000   0.69596487    -52024.218      311          
    898000   0.55980101    -52027.603      311          
    899000   0.73061016    -52024.09       311          
    900000   0.72296987    -52027.704      311          
    901000   0.74640392    -52025.024      311          
    902000   0.47767468    -52030.803      311          
    903000   0.65885883    -52026.323      311          
    904000   0.54878659    -52030.577      311          
    905000   0.9219722     -52023.567      311          
    906000   1.1237609     -52022.35       311          
    907000   0.86475106    -52025.48       311          
    908000   0.72622689    -52024.532      311          
    909000   0.75396204    -52027.709      311          
    910000   0.60220148    -52024.85       311          
    911000   0.49781887    -52028.145      311          
    912000   0.63376413    -52030.657      311          
    913000   1.0340119     -52018.805      311          
    914000   0.74418047    -52023.508      311          
    915000   0.83490622    -52027.23       311          
    916000   0.45830466    -52027.04       311          
    917000   0.53389186    -52025.979      311          
    918000   0.51194449    -52029.929      311          
    919000   0.4699163     -52031.056      311          
    920000   0.66407519    -52025.013      311          
    921000   0.94619015    -52024.066      311          
    922000   0.87780594    -52022.553      311          
    923000   1.0904002     -52023.367      311          
    924000   0.44163462    -52032.327      311          
    925000   1.1456949     -52022.066      311          
    926000   0.74576891    -52025.301      311          
    927000   0.8560952     -52027.08       311          
    928000   0.69577963    -52025.726      311          
    929000   0.49745855    -52030.226      311          
    930000   0.74540706    -52024.395      311          
    931000   0.91765219    -52021.57       311          
    932000   1.2234428     -52016.339      311          
    933000   0.83638267    -52023.684      311          
    934000   0.62043981    -52024.812      311          
    935000   0.82881397    -52021.567      311          
    936000   0.55189236    -52027.825      311          
    937000   0.64600834    -52025.392      311          
    938000   0.79708388    -52026.988      311          
    939000   0.73499723    -52026.396      311          
    940000   0.58565014    -52029.601      311          
    941000   0.74483508    -52022.753      311          
    942000   0.65960985    -52028.039      311          
    943000   0.54196434    -52026.182      311          
    944000   0.57952946    -52030.559      311          
    945000   0.73954144    -52028.528      311          
    946000   0.87553424    -52021.535      311          
    947000   1.2467192     -52019.179      311          
    948000   0.69641654    -52024.847      311          
    949000   0.68518958    -52026.904      311          
    950000   0.67348825    -52024.245      311          
    951000   1.0157364     -52023.482      311          
    952000   0.99811335    -52020.385      311          
    953000   0.80664668    -52026.302      311          
    954000   0.86243349    -52021.46       311          
    955000   0.51978666    -52028.048      311          
    956000   1.0769797     -52021.787      311          
    957000   1.0252234     -52017.421      311          
    958000   0.83623763    -52021.635      311          
    959000   0.41147197    -52032.662      311          
    960000   0.68805449    -52027.436      311          
    961000   0.54354918    -52027.48       311          
    962000   0.58308877    -52029.079      311          
    963000   0.80273233    -52021.521      311          
    964000   0.62394859    -52028.281      311          
    965000   0.5565478     -52030.038      311          
    966000   0.57271654    -52029.847      311          
    967000   0.82180395    -52024.969      311          
    968000   0.71364737    -52024.846      311          
    969000   0.80814329    -52024.994      311          
    970000   0.58195739    -52026.61       311          
    971000   0.70572558    -52027.811      311          
    972000   0.94567961    -52022.11       311          
    973000   0.94303909    -52019.541      311          
    974000   0.70146631    -52022.41       311          
    975000   0.73564548    -52025.779      311          
    976000   0.53407481    -52028.899      311          
    977000   0.63076998    -52029.52       311          
    978000   0.8020571     -52023.677      311          
    979000   0.54146099    -52030.033      311          
    980000   0.77878348    -52023.424      311          
    981000   0.78597742    -52025.303      311          
    982000   0.70488203    -52023.111      311          
    983000   0.60259661    -52026.289      311          
    984000   0.45791697    -52032.332      311          
    985000   0.59130654    -52027.327      311          
    986000   0.94428858    -52020.829      311          
    987000   0.67041398    -52024.315      311          
    988000   0.58742952    -52030.284      311          
    989000   0.60808449    -52026.773      311          
    990000   0.61612523    -52025.896      311          
    991000   0.69178754    -52022.013      311          
    992000   0.6150494     -52025.559      311          
    993000   0.55022836    -52030.419      311          
    994000   0.89153961    -52023.565      311          
    995000   0.73397178    -52027.526      311          
    996000   0.56282723    -52027.383      311          
    997000   0.41638783    -52032.474      311          
    998000   0.65094248    -52025.264      311          
    999000   0.65252678    -52023.379      311          
   1000000   0.59272463    -52027.732      311          
   1001000   0.57065949    -52029.793      311          
   1002000   0.82548739    -52026.096      311          
   1003000   0.51850035    -52030.27       311          
   1004000   0.77998777    -52022.701      311          
   1005000   0.58352091    -52026.143      311          
   1006000   0.56963071    -52027.863      311          
   1007000   0.56975366    -52027.659      311          
   1008000   0.84972555    -52022.773      311          
   1009000   0.81015064    -52025.159      311          
   1010000   0.64796214    -52030.024      311          
   1011000   0.81100021    -52023.574      311          
   1012000   0.54799347    -52030.099      311          
   1013000   0.60632144    -52029.195      311          
   1014000   0.54649093    -52029.589      311          
   1015000   1.0099364     -52022.165      311          
   1016000   0.62799531    -52025.297      311          
   1017000   0.70236782    -52026.331      311          
   1018000   0.70872747    -52025.197      311          
   1019000   0.5306826     -52030.653      311          
   1020000   0.69465972    -52023.146      311          
   1021000   0.38328754    -52031.814      311          
   1022000   0.54179226    -52030.94       311          
   1023000   0.53849411    -52031.111      311          
   1024000   0.57547358    -52027.185      311          
   1025000   0.62000173    -52027.224      311          
   1026000   1.0233303     -52021.459      311          
   1027000   0.70304549    -52028.336      311          
   1028000   0.59136059    -52037.38       312          
   1029000   0.60196058    -52034.983      312          
   1030000   0.52748635    -52036.936      312          
   1031000   0.91189776    -52031.068      312          
   1032000   0.64410341    -52035.11       312          
   1033000   0.67320233    -52037.142      312          
   1034000   0.76165718    -52035.124      312          
   1035000   0.6350334     -52032.325      312          
   1036000   0.65055062    -52033.099      312          
   1037000   0.58428106    -52038.819      312          
   1038000   0.74729716    -52034.81       312          
   1039000   0.80266664    -52030.277      312          
   1040000   0.87840776    -52034.27       312          
   1041000   0.56793614    -52036.87       312          
   1042000   0.69666658    -52035.098      312          
   1043000   0.87733637    -52030.028      312          
   1044000   0.61046586    -52032.965      312          
   1045000   0.78819476    -52030.126      312          
   1046000   0.59173453    -52036.354      312          
   1047000   0.44201338    -52039.598      312          
   1048000   0.72786573    -52031.996      312          
   1049000   0.54604169    -52035.608      312          
   1050000   0.8742178     -52033.87       312          
   1051000   0.42930867    -52035.633      312          
   1052000   0.64407753    -52034.623      312          
   1053000   0.6860531     -52030.94       312          
   1054000   0.62843914    -52034.381      312          
   1055000   0.488861      -52037.73       312          
   1056000   0.85769057    -52033.859      312          
   1057000   0.86808288    -52030.065      312          
   1058000   0.66668632    -52033.167      312          
   1059000   0.65453731    -52036.616      312          
   1060000   0.39529078    -52041.018      312          
   1061000   1.1034905     -52030.01       312          
   1062000   0.50234589    -52037.067      312          
   1063000   0.83771399    -52030.625      312          
   1064000   0.58671564    -52036.845      312          
   1065000   0.78291456    -52030.932      312          
   1066000   0.58366201    -52035.56       312          
   1067000   0.60789765    -52037.579      312          
   1068000   0.76581969    -52036.427      312          
   1069000   0.43265414    -52037.903      312          
   1070000   0.54354438    -52034.917      312          
   1071000   0.59631553    -52037.173      312          
   1072000   0.40382997    -52039.911      312          
   1073000   0.76734974    -52030.882      312          
   1074000   0.74564199    -52035.849      312          
   1075000   0.88235109    -52031.163      312          
   1076000   0.59855802    -52037.296      312          
   1077000   0.65866689    -52037.347      312          
   1078000   0.81392691    -52031.996      312          
   1079000   0.55564629    -52044.014      313          
   1080000   0.8333969     -52041.848      313          
   1081000   0.64839791    -52045.912      313          
   1082000   0.63537803    -52045.296      313          
   1083000   0.60124044    -52042.212      313          
   1084000   0.55451886    -52046.984      313          
   1085000   0.62919834    -52044.95       313          
   1086000   0.85239629    -52041.748      313          
   1087000   0.9246098     -52040.018      313          
   1088000   0.8587352     -52041.81       313          
   1089000   0.59228607    -52044.832      313          
   1090000   0.88810473    -52041.654      313          
   1091000   0.85191756    -52039.691      313          
   1092000   0.60351707    -52043.961      313          
   1093000   0.97074834    -52039.534      313          
   1094000   0.74716022    -52038.221      313          
   1095000   0.72316522    -52044.303      313          
   1096000   0.62210691    -52046.217      313          
   1097000   0.79467566    -52040.159      313          
   1098000   0.72100232    -52044.935      313          
   1099000   0.55074858    -52043.091      313          
   1100000   0.94520028    -52042.079      313          
   1101000   0.8349528     -52042.458      313          
   1102000   0.51110345    -52046.691      313          
   1103000   0.92118856    -52038.904      313          
   1104000   0.69549581    -52038.616      313          
   1105000   0.59762825    -52044.852      313          
   1106000   0.62892254    -52045.461      313          
   1107000   0.50778837    -52046.223      313          
   1108000   0.85191101    -52037.051      313          
   1109000   0.64171696    -52043.1        313          
   1110000   0.82450339    -52039.315      313          
   1111000   0.60054826    -52045.506      313          
   1112000   0.52553939    -52047.276      313          
   1113000   0.6353846     -52042.913      313          
   1114000   0.57957908    -52045.279      313          
   1115000   0.98358435    -52040.038      313          
   1116000   0.7369601     -52044.356      313          
   1117000   0.75765279    -52040.414      313          
   1118000   0.7334664     -52045.192      313          
   1119000   0.68942083    -52042.983      313          
   1120000   0.56932112    -52043.619      313          
   1121000   0.65764398    -52045.585      313          
   1122000   0.6126149     -52041.386      313          
   1123000   1.0281998     -52038.052      313          
   1124000   0.54604474    -52045.975      313          
   1125000   0.72858828    -52042.112      313          
   1126000   0.44306655    -52048.731      313          
   1127000   0.56757757    -52046.398      313          
   1128000   0.86040132    -52039.187      313          
   1129000   0.72051472    -52041.539      313          
   1130000   0.46071896    -52046.858      313          
   1131000   0.65469774    -52041.47       313          
   1132000   0.7007073     -52044.203      313          
   1133000   0.55391403    -52041.505      313          
   1134000   0.53894802    -52045.495      313          
   1135000   0.78696982    -52039.524      313          
   1136000   0.35763789    -52048.438      313          
   1137000   0.65820276    -52045.909      313          
   1138000   0.73691342    -52041.473      313          
   1139000   0.95966301    -52039.387      313          
   1140000   0.52912898    -52045.221      313          
   1141000   0.75087239    -52039.188      313          
   1142000   0.64893576    -52046.563      313          
   1143000   0.59828712    -52046.669      313          
   1144000   0.58692366    -52040.343      313          
   1145000   0.71803432    -52043.372      313          
   1146000   0.76028707    -52042.532      313          
   1147000   0.6712223     -52040.185      313          
   1148000   0.61728017    -52043.745      313          
   1149000   0.51620513    -52042.943      313          
   1150000   0.64996392    -52044.834      313          
   1151000   0.41172285    -52049.703      313          
   1152000   0.77051101    -52039.745      313          
   1153000   0.52482483    -52045.248      313          
   1154000   0.77249435    -52043.481      313          
   1155000   0.97479369    -52039.817      313          
   1156000   0.55767349    -52044.808      313          
   1157000   0.78432136    -52041.297      313          
   1158000   0.51378351    -52046.817      313          
   1159000   0.79561109    -52042.096      313          
   1160000   0.92944288    -52041.52       313          
   1161000   0.52928033    -52044.577      313          
   1162000   0.74329181    -52041.284      313          
   1163000   0.63418947    -52042.548      313          
   1164000   0.64445449    -52045.166      313          
   1165000   0.67291846    -52046.059      313          
   1166000   0.53757144    -52045.288      313          
   1167000   0.71130932    -52041.854      313          
   1168000   0.67166574    -52042.8        313          
   1169000   0.98298353    -52037.157      313          
   1170000   0.68081939    -52044.123      313          
   1171000   0.73907319    -52039.846      313          
   1172000   0.58755814    -52046.091      313          
   1173000   0.99844823    -52040.693      313          
   1174000   0.76168738    -52040.054      313          
   1175000   0.61619121    -52041.185      313          
   1176000   0.90918308    -52038.772      313          
   1177000   0.65351142    -52045.097      313          
   1178000   0.51119798    -52045.259      313          
   1179000   0.97684187    -52042.185      313          
   1180000   0.8468586     -52037.927      313          
   1181000   0.68545102    -52040.22       313          
   1182000   0.63447326    -52040.861      313          
   1183000   0.61969981    -52044.633      313          
   1184000   0.90664123    -52037.768      313          
   1185000   0.5863107     -52044.091      313          
   1186000   0.64854265    -52043.239      313          
   1187000   0.49998664    -52047.917      313          
   1188000   0.84934165    -52041.869      313          
   1189000   0.73591186    -52038.267      313          
   1190000   0.95338257    -52039.145      313          
   1191000   0.52607875    -52044.092      313          
   1192000   0.56081833    -52046.875      313          
   1193000   0.94926226    -52040.115      313          
   1194000   0.84881615    -52040.543      313          
   1195000   0.62387232    -52044.852      313          
   1196000   0.8048192     -52039.904      313          
   1197000   0.74150059    -52044.431      313          
   1198000   1.1300545     -52035.005      313          
   1199000   0.69583045    -52043.086      313          
   1200000   0.59544064    -52046.856      313          
   1201000   0.95209307    -52041.046      313          
   1202000   0.85238728    -52042.721      313          
   1203000   0.49733978    -52046.997      313          
   1204000   0.84157751    -52041.107      313          
   1205000   0.51274431    -52046.177      313          
   1206000   0.8311444     -52043.757      313          
   1207000   0.80748653    -52042.248      313          
   1208000   0.54807104    -52043.173      313          
   1209000   0.73294031    -52043.921      313          
   1210000   0.52506976    -52048.307      313          
   1211000   0.74798891    -52041.21       313          
   1212000   0.69101254    -52042.969      313          
   1213000   0.45226672    -52048.443      313          
   1214000   0.61409371    -52042.718      313          
   1215000   0.71650046    -52044.982      313          
   1216000   0.74715407    -52042.988      313          
   1217000   0.88168829    -52035.744      313          
   1218000   0.69209181    -52038.577      313          
   1219000   0.62501094    -52045.548      313          
   1220000   0.61771967    -52043.947      313          
   1221000   1.0099302     -52040.842      313          
   1222000   0.71841257    -52043.875      313          
   1223000   0.64897926    -52046.38       313          
   1224000   0.75888635    -52045.126      313          
   1225000   1.0084385     -52038.734      313          
   1226000   0.58217196    -52045.612      313          
   1227000   0.78525318    -52039.024      313          
   1228000   0.92330515    -52041.023      313          
   1229000   0.69683649    -52040.046      313          
   1230000   0.60983508    -52045.391      313          
   1231000   0.45404894    -52048.921      313          
   1232000   0.99950031    -52040.292      313          
   1233000   0.64845107    -52045.387      313          
   1234000   1.046018      -52039.819      313          
   1235000   0.77187909    -52035.242      313          
   1236000   0.59567468    -52040.304      313          
   1237000   0.85365165    -52041.441      313          
   1238000   0.63826936    -52044.164      313          
   1239000   0.8114485     -52041.109      313          
   1240000   0.66037907    -52040.789      313          
   1241000   0.57865956    -52046.889      313          
   1242000   0.76337602    -52041.061      313          
   1243000   0.56387282    -52045.82       313          
   1244000   0.83936219    -52041.412      313          
   1245000   0.79041201    -52040.03       313          
   1246000   0.61472365    -52043.916      313          
   1247000   1.0207283     -52037.19       313          
   1248000   0.57538286    -52044.928      313          
   1249000   0.92751983    -52040.506      313          
   1250000   0.81173221    -52041.356      313          
   1251000   0.53263122    -52046.291      313          
   1252000   0.79619685    -52044.401      313          
   1253000   0.89427066    -52037.468      313          
   1254000   0.77262868    -52039.911      313          
   1255000   0.60490964    -52043.311      313          
   1256000   0.82224516    -52039.625      313          
   1257000   0.57672698    -52044.54       313          
   1258000   0.68868276    -52045.178      313          
   1259000   0.6513442     -52044.219      313          
   1260000   0.99627133    -52039.462      313          
[...]
   2176000   0.64617774    -52108.742      321          
   2177000   0.8655193     -52104.826      321          
   2178000   0.58893837    -52111.18       321          
   2179000   0.96884881    -52106.183      321          
   2180000   0.52664058    -52110.485      321          
   2181000   0.47789099    -52111.891      321          
   2182000   0.61861124    -52111.238      321          
   2183000   0.6563772     -52108.769      321          
   2184000   0.52101975    -52109.992      321          
   2185000   0.96904848    -52102.94       321          
   2186000   0.6245495     -52109.894      321          
   2187000   0.36314679    -52114.024      321          
   2188000   1.0407846     -52105.415      321          
   2189000   0.58866853    -52108.283      321          
   2190000   0.59897806    -52111.413      321          
   2191000   0.69352498    -52108.027      321          
   2192000   0.56096476    -52111.154      321          
   2193000   0.8165804     -52106.281      321          
   2194000   0.53508408    -52110.216      321          
   2195000   0.64248254    -52107.107      321          
   2196000   0.64992898    -52108.308      321          
   2197000   0.90409819    -52107.462      321          
   2198000   0.59114106    -52111.399      321          
   2199000   0.92428317    -52106.962      321          
   2200000   0.87063283    -52102.084      321          
   2201000   0.64381475    -52110.81       321          
   2202000   0.57633281    -52107.497      321          
   2203000   0.79985604    -52108.811      321          
   2204000   0.68479566    -52108.552      321          
   2205000   0.60369823    -52108.886      321          
   2206000   0.50661564    -52113.494      321          
   2207000   0.88970354    -52100.822      321          
   2208000   0.99771547    -52107.123      321          
   2209000   1.1601716     -52104.198      321          
   2210000   0.84448207    -52104.962      321          
   2211000   0.76620013    -52109.546      321          
   2212000   0.82249645    -52105.348      321          
   2213000   0.63322784    -52108.91       321          
   2214000   0.85819256    -52107.342      321          
   2215000   0.59940547    -52112.101      321          
   2216000   0.74445114    -52106.15       321          
   2217000   0.67148383    -52108.846      321          
   2218000   0.77273865    -52109.617      321          
   2219000   0.7650496     -52108.285      321          
   2220000   0.67380011    -52108.972      321          
   2221000   0.95392471    -52107.741      321          
   2222000   0.73454717    -52106.783      321          
   2223000   0.80282877    -52108.239      321          
   2224000   0.59135537    -52108.695      321          
   2225000   0.52214397    -52111.355      321          
   2226000   0.71640787    -52105.591      321          
   2227000   0.63315167    -52110.863      321          
   2228000   0.74620981    -52106.909      321          
   2229000   0.85849307    -52103.603      321          
   2230000   0.64222953    -52110.433      321          
   2231000   0.6927596     -52107.788      321          
   2232000   1.0513127     -52104.522      321          
   2233000   0.75257317    -52105.96       321          
   2234000   0.65982474    -52109.526      321          
   2235000   0.63514366    -52111.2        321          
   2236000   0.84999253    -52107.213      321          
   2237000   0.79711214    -52108.384      321          
   2238000   0.87959702    -52104.061      321          
   2239000   1.1086709     -52102.504      321          
   2240000   0.69083337    -52108.538      321          
   2241000   0.93570526    -52104.723      321          
   2242000   0.58004533    -52111.694      321          
   2243000   0.93932659    -52104.56       321          
   2244000   0.52825219    -52109.587      321          
   2245000   0.50940296    -52111.593      321          
   2246000   1.0070078     -52106.802      321          
   2247000   0.58679516    -52108.059      321          
   2248000   0.52943709    -52110.592      321          
   2249000   0.9519731     -52103.214      321          
   2250000   0.78636814    -52107.85       321          
   2251000   0.46798206    -52112.575      321          
   2252000   0.69895461    -52107.935      321          
   2253000   0.75268394    -52104.249      321          
   2254000   0.71548853    -52109.48       321          
   2255000   0.74271127    -52107.659      321          
   2256000   0.7538222     -52104.896      321          
   2257000   0.846527      -52104.981      321          
   2258000   0.71592124    -52108.185      321          
   2259000   0.74273208    -52103.493      321          
   2260000   0.63504727    -52110.599      321          
   2261000   0.80926219    -52104.249      321          
   2262000   0.61313117    -52106.916      321          
   2263000   0.60590293    -52109.011      321          
   2264000   0.96623288    -52103.889      321          
   2265000   0.94904833    -52106.174      321          
   2266000   0.96830165    -52102.189      321          
   2267000   0.77558603    -52104.45       321          
   2268000   0.97336239    -52105.837      321          
   2269000   1.2325912     -52099.132      321          
   2270000   0.68883359    -52110.746      321          
   2271000   0.44873081    -52110.154      321          
   2272000   0.76621797    -52106.16       321          
   2273000   0.63502175    -52111.703      321          
   2274000   0.97086969    -52102.261      321          
   2275000   0.61548409    -52108.947      321          
   2276000   0.88091983    -52103.144      321          
   2277000   0.83033715    -52105.196      321          
   2278000   0.67569305    -52111.029      321          
   2279000   0.67434745    -52107.762      321          
   2280000   0.89342154    -52104.378      321          
   2281000   0.71736556    -52110.499      321          
   2282000   0.76605134    -52105.08       321          
   2283000   0.48735425    -52109.589      321          
   2284000   0.64400053    -52108.471      321          
   2285000   0.64594332    -52111.226      321          
   2286000   0.94942636    -52104.743      321          
   2287000   0.84311684    -52105.086      321          
   2288000   0.61368432    -52112.212      321          
   2289000   0.5491434     -52110.695      321          
   2290000   0.88591211    -52105.396      321          
   2291000   0.5519413     -52107.786      321          
   2292000   0.5955896     -52110.128      321          
   2293000   0.60547345    -52106.73       321          
   2294000   0.78372258    -52108.925      321          
   2295000   0.46269051    -52113.076      321          
   2296000   0.9943292     -52106.675      321          
   2297000   0.8739985     -52101.943      321          
   2298000   0.53473967    -52111.913      321          
   2299000   0.85474995    -52105.446      321          
   2300000   0.69075384    -52104.486      321          
   2301000   0.56009828    -52112.021      321          
   2302000   0.62425082    -52111.804      321          
   2303000   0.69539384    -52109.138      321          
   2304000   0.86015005    -52106.106      321          
   2305000   0.86686131    -52108.82       321          
   2306000   0.67359873    -52107.17       321          
   2307000   1.0035175     -52106.955      321          
   2308000   0.61213789    -52110.334      321          
   2309000   0.5522239     -52113          321          
   2310000   0.7132754     -52110.139      321          
   2311000   0.87359679    -52107.63       321          
   2312000   0.92413861    -52104.201      321          
   2313000   0.86130414    -52107.527      321          
   2314000   0.71743139    -52104.473      321          
   2315000   0.5040656     -52113.017      321          
   2316000   0.66513991    -52107.411      321          
   2317000   0.59374932    -52111.059      321          
   2318000   0.44720078    -52113.875      321          
   2319000   0.86599248    -52109.251      321          
   2320000   0.63270782    -52107.864      321          
   2321000   0.57363183    -52110.43       321          
   2322000   1.0243959     -52106.629      321          
   2323000   0.78477579    -52104.939      321          
   2324000   0.68256206    -52110.392      321          
   2325000   0.59547971    -52111.626      321          
   2326000   1.1081987     -52105.39       321          
   2327000   0.56366353    -52108.935      321          
   2328000   0.73135937    -52109.888      321          
   2329000   0.8079449     -52104.908      321          
   2330000   0.84575199    -52106.733      321          
   2331000   0.44978701    -52113.839      321          
   2332000   0.95237844    -52106.641      321          
   2333000   0.6856401     -52105.181      321          
   2334000   0.50793354    -52111.233      321          
   2335000   0.88595957    -52105.827      321          
   2336000   0.84303895    -52107.179      321          
   2337000   0.59705056    -52111.536      321          
   2338000   0.62160603    -52107.454      321          
   2339000   0.57848794    -52110.75       321          
   2340000   0.57863166    -52112.75       321          
   2341000   0.87676737    -52104.876      321          
   2342000   0.74472011    -52106.365      321          
   2343000   0.60023264    -52110.071      321          
   2344000   1.149314      -52102.937      321          
   2345000   0.66801722    -52106.702      321          
   2346000   0.72429627    -52109.343      321          
   2347000   0.55395627    -52112.721      321          
   2348000   0.54262823    -52112.697      321          
   2349000   0.55937511    -52109.795      321          
   2350000   0.60920203    -52111.499      321          
   2351000   0.72928094    -52107.637      321          
   2352000   0.58877836    -52108.607      321          
   2353000   0.53120179    -52112.688      321          
   2354000   0.71165268    -52107.727      321          
   2355000   0.44341487    -52115.391      321          
   2356000   0.65060584    -52108.499      321          
   2357000   0.67838671    -52108.056      321          
   2358000   0.71454318    -52111.106      321          
   2359000   0.63896174    -52109.681      321          
   2360000   0.91109893    -52107.11       321          
   2361000   0.71363362    -52107.939      321          
   2362000   0.55895618    -52110.95       321          
   2363000   0.6271867     -52111.696      321          
   2364000   1.1734584     -52100.686      321          
   2365000   0.45836397    -52113.35       321          
   2366000   0.59722362    -52107.253      321          
   2367000   0.60793606    -52110.457      321          
   2368000   0.73844275    -52108.156      321          
   2369000   0.74173138    -52105.112      321          
   2370000   0.78288406    -52103.952      321          
   2371000   0.61183179    -52109.072      321          
   2372000   0.5584737     -52111.452      321          
   2373000   0.90483733    -52105.074      321          
   2374000   0.81638058    -52108.567      321          
   2375000   0.58757407    -52109.07       321          
   2376000   0.63844135    -52111.187      321          
   2377000   0.81626833    -52107.039      321          
   2378000   0.60744801    -52107.538      321          
   2379000   0.47505205    -52112.201      321          
   2380000   0.59599011    -52112.726      321          
   2381000   0.52877347    -52113.61       321          
   2382000   0.96336116    -52105.336      321          
   2383000   0.47521303    -52113.034      321          
   2384000   0.63857741    -52111.207      321          
   2385000   0.63865063    -52107.65       321          
   2386000   0.64486638    -52110.595      321          
   2387000   0.91236873    -52105.551      321          
   2388000   0.55498455    -52109.934      321          
   2389000   0.60759016    -52109.732      321          
   2390000   0.57219274    -52111.509      321          
   2391000   0.77806753    -52107.479      321          
   2392000   0.6098557     -52110.755      321          
   2393000   0.62091099    -52112.131      321          
   2394000   0.95292277    -52105.829      321          
   2395000   0.56925543    -52109.811      321          
   2396000   0.59705893    -52109.563      321          
   2397000   0.51298951    -52113.446      321          
   2398000   0.765197      -52107.135      321          
   2399000   0.79018799    -52110.223      321          
   2400000   0.83569379    -52108.864      321          
   2401000   1.059725      -52098.648      321          
   2402000   0.44446865    -52113.271      321          
   2403000   0.75130555    -52110.391      321          
   2404000   0.50417077    -52112.404      321          
   2405000   0.5458977     -52109.932      321          
   2406000   0.52417355    -52112.818      321          
   2407000   0.80065326    -52107.861      321          
   2408000   0.60650233    -52107.334      321          
   2409000   0.61959902    -52111.717      321          
   2410000   0.5511244     -52111.109      321          
   2411000   0.73107025    -52106.638      321          
   2412000   0.71415486    -52110.12       321          
   2413000   0.91957038    -52103.09       321          
   2414000   0.70979356    -52107.2        321          
   2415000   0.51058036    -52113.301      321          
   2416000   0.59323971    -52110.333      321          
   2417000   0.80916599    -52107.604      321          
   2418000   0.67602674    -52108.3        321          
   2419000   0.90286997    -52107.306      321          
   2420000   0.49262146    -52110.49       321          
   2421000   0.49449302    -52108.858      321          
   2422000   0.9433671     -52107.216      321          
   2423000   0.60297971    -52107.839      321          
   2424000   0.66775642    -52110.368      321          
   2425000   0.98059766    -52099.624      321          
   2426000   0.79587357    -52104.97       321          
   2427000   0.5004785     -52111.884      321          
   2428000   0.95563869    -52105.147      321          
   2429000   1.0392543     -52105.724      321          
   2430000   0.65277604    -52110.613      321          
   2431000   0.44627678    -52110.006      321          
   2432000   0.44144996    -52114.852      321          
   2433000   0.54443577    -52113.443      321          
   2434000   0.56236731    -52110.988      321          
   2435000   0.67931727    -52106.573      321          
   2436000   0.44427852    -52114.644      321          
   2437000   0.57682263    -52109.675      321          
   2438000   0.59507062    -52111.003      321          
   2439000   0.85626116    -52105.302      321          
   2440000   0.52460157    -52113.582      321          
   2441000   0.59668246    -52112.777      321          
   2442000   0.6034222     -52110.736      321          
   2443000   0.67583004    -52107.376      321          
   2444000   0.80380282    -52109.281      321          
   2445000   0.87127788    -52104.585      321          
   2446000   0.74406619    -52107.273      321          
   2447000   0.88247762    -52107.729      321          
   2448000   0.75500246    -52109.489      321          
   2449000   1.1851909     -52102.008      321          
   2450000   0.83868644    -52104.748      321          
   2451000   0.74354793    -52111.499      321          
   2452000   0.49003043    -52111.865      321          
   2453000   0.79448154    -52106.46       321          
   2454000   0.65319226    -52106.625      321          
   2455000   0.65490868    -52109.42       321          
   2456000   0.85030644    -52104.45       321          
   2457000   0.63300222    -52106.713      321          
   2458000   0.59268686    -52110.801      321          
   2459000   0.5832489     -52113.096      321          
   2460000   0.96951589    -52103.55       321          
   2461000   0.52487362    -52110.047      321          
   2462000   0.8001813     -52101.018      321          
   2463000   0.52835424    -52108.825      321          
   2464000   0.69021512    -52110.264      321          
   2465000   0.50579393    -52111.337      321          
   2466000   0.79510802    -52109.463      321          
   2467000   0.98921085    -52102.067      321          
   2468000   0.68497073    -52110.366      321          
   2469000   0.58759009    -52110.339      321          
   2470000   0.82926445    -52108.268      321          
   2471000   0.55351914    -52109.024      321          
   2472000   0.40672972    -52113.502      321          
   2473000   0.59464097    -52110.637      321          
   2474000   0.79990881    -52107.993      321          
   2475000   0.6528318     -52109.841      321          
   2476000   0.68943869    -52105.283      321          
   2477000   0.67800829    -52110.456      321          
   2478000   0.56193938    -52109.725      321          
   2479000   0.61099433    -52111.618      321          
   2480000   0.46142339    -52109.014      321          
   2481000   0.71144087    -52108.982      321          
   2482000   0.58570892    -52108.054      321          
   2483000   0.63396692    -52111.825      321          
   2484000   0.69298208    -52111.847      321          
   2485000   0.8581597     -52106.323      321          
   2486000   0.77227985    -52107.012      321          
   2487000   0.91321516    -52103.601      321          
   2488000   1.0043615     -52104.698      321          
   2489000   0.49413607    -52109.411      321          
   2490000   0.65094024    -52109.668      321          
   2491000   0.42485092    -52109.826      321          
   2492000   0.51510734    -52111.982      321          
   2493000   0.32020425    -52116.862      321          
   2494000   0.70149011    -52109.315      321          
   2495000   0.54300343    -52110.682      321          
   2496000   0.76168093    -52109.071      321          
   2497000   0.77099339    -52104.668      321          
   2498000   0.54218574    -52111.025      321          
   2499000   0.59037274    -52109.461      321          
   2500000   0.62965529    -52106.093      321          
   2501000   0.5892245     -52109.135      321          
   2502000   0.59050681    -52111.211      321          
Loop time of 72466.7 on 8 procs for 2500000 steps with 4419 atoms

Performance: 2.981 ns/day, 8.052 hours/ns, 34.499 timesteps/s, 152.449 katom-step/s
800.0% CPU use with 1 MPI tasks x 8 OpenMP threads

MPI task timing breakdown:
Section |  min time  |  avg time  |  max time  |%varavg| %total
---------------------------------------------------------------
Pair    | 3355.3     | 3355.3     | 3355.3     |   0.0 |  4.63
Bond    | 20.666     | 20.666     | 20.666     |   0.0 |  0.03
Kspace  | 14729      | 14729      | 14729      |   0.0 | 20.33
Neigh   | 289.31     | 289.31     | 289.31     |   0.0 |  0.40
Comm    | 243.38     | 243.38     | 243.38     |   0.0 |  0.34
Output  | 0.31145    | 0.31145    | 0.31145    |   0.0 |  0.00
Modify  | 53797      | 53797      | 53797      |   0.0 | 74.24
Other   |            | 32.22      |            |       |  0.04

Nlocal:           4419 ave        4419 max        4419 min
Histogram: 1 0 0 0 0 0 0 0 0 0
Nghost:          17315 ave       17315 max       17315 min
Histogram: 1 0 0 0 0 0 0 0 0 0
Neighs:         676205 ave      676205 max      676205 min
Histogram: 1 0 0 0 0 0 0 0 0 0

Total # of neighbors = 676205
Ave neighs/atom = 153.02218
Ave special neighs/atom = 0.43584521
Neighbor list builds = 2550053
Dangerous builds = 0
Total wall time: 20:07:56
