LAMMPS (27 Jun 2024)
  using 8 OpenMP thread(s) per MPI task
package omp 0
using multi-threaded neighbor list subroutines
# LAMMPS input script by Simon Gravelle
# For LAMMPS tutorials, see https://lammpstutorials.github.io
# Last tested using the 27Jun2024 LAMMPS version

variable Nstep equal 2500000
variable mu_K equal -5000
variable mu_kcal_mol equal ${mu_K}*0.0019872041
variable mu_kcal_mol equal -5000*0.0019872041
print "mu equal ${mu_kcal_mol}"
mu equal -9.9360205
variable tfac equal 5.0/3.0
variable Nattempt equal 10

units real
boundary p p p
atom_style full
pair_style lj/cut/coul/long 12
kspace_style ewald 1.0e-5
bond_style harmonic
angle_style harmonic
pair_modify mix geometric
special_bonds lj 0.0 0.0 0.0 coul 0.0 0.0 0.0 angle yes

read_data box.data
Reading data file ...
  orthogonal box = (-25 -25 -25) to (25 25 25)
  1 by 1 by 1 MPI processor grid
  reading atom labelmap ...
  reading bond labelmap ...
  reading angle labelmap ...
  reading atoms ...
  150 atoms
  reading velocities ...
  150 velocities
  scanning bonds ...
  1 = max bonds/atom
  scanning angles ...
  1 = max angles/atom
  orthogonal box = (-25 -25 -25) to (25 25 25)
  1 by 1 by 1 MPI processor grid
  reading bonds ...
  100 bonds
  reading angles ...
  50 angles
Finding 1-2 1-3 1-4 neighbors ...
  special bond factors lj:    0        0        0       
  special bond factors coul:  0        0        0       
     2 = max # of 1-2 neighbors
     1 = max # of 1-3 neighbors
     1 = max # of 1-4 neighbors
  100 = # of 1-3 neighbors before angle trim
  100 = # of 1-3 neighbors after angle trim
     2 = max # of special neighbors
  special bonds CPU = 0.000 seconds
  read_data CPU = 0.014 seconds
labelmap atom 1 O 2 C
labelmap bond 1 C-O
labelmap angle 1 O-C-O

group CO2 type C O
150 atoms in group CO2
include parm.lmp
# LAMMPS parameter file for H2O SPCE water model
# For conversion from K to kcal / mol, multiply
# by Boltzmann = 0.0019872041 kcal / (mol * K)

mass O 15.9994
mass C 12.0110

pair_coeff O O 0.164858 3.011
pair_coeff C C 0.05894 2.789

bond_coeff C-O 0.0 1.18 # rigid

angle_coeff O-C-O 0.0 180.0 # rigid

molecule CO2mol CO2.mol
Read molecule template CO2mol:
# LAMMPS molecule file for carbondioxide
  1 molecules
  0 fragments
  3 atoms with max type 2
  2 bonds with max type 1
  1 angles with max type 1
  0 dihedrals with max type 0
  0 impropers with max type 0

fix mynvt CO2 rigid/nvt/small molecule temp 300 300 100 mol CO2mol
  create bodies CPU = 0.000 seconds
  50 rigid bodies with 150 atoms
  1.18 = max distance from body owner to body atom
thermo 1000

run 2000

CITE-CITE-CITE-CITE-CITE-CITE-CITE-CITE-CITE-CITE-CITE-CITE-CITE

Your simulation uses code contributions which should be cited:

- Type Label Framework: https://doi.org/10.1021/acs.jpcb.3c08419

@Article{Gissinger24,
 author = {Jacob R. Gissinger, Ilia Nikiforov, Yaser Afshar, Brendon Waters, Moon-ki Choi, Daniel S. Karls, Alexander Stukowski, Wonpil Im, Hendrik Heinz, Axel Kohlmeyer, and Ellad B. Tadmor},
 title = {Type Label Framework for Bonded Force Fields in LAMMPS},
 journal = {J. Phys. Chem. B},
 year =    2024,
 volume =  128,
 number =  13,
 pages =   {3282–-3297}
}

CITE-CITE-CITE-CITE-CITE-CITE-CITE-CITE-CITE-CITE-CITE-CITE-CITE

Ewald initialization ...
  using 12-bit tables for long-range coulomb (src/kspace.cpp:342)
  G vector (1/distance) = 0.20077039
  estimated absolute RMS force accuracy = 0.0039018044
  estimated relative force accuracy = 1.1750168e-05
  KSpace vectors: actual max1d max3d = 1054 8 2456
                  kxmax kymax kzmax  = 8 8 8
Generated 1 of 1 mixed pair_coeff terms from geometric mixing rule
Last active /omp style is kspace_style ewald/omp
Neighbor list info ...
  update: every = 1 steps, delay = 0 steps, check = yes
  max neighbors/atom: 2000, page size: 100000
  master list distance cutoff = 14
  ghost atom cutoff = 14
  binsize = 7, bins = 8 8 8
  1 neighbor lists, perpetual/occasional/extra = 1 0 0
  (1) pair lj/cut/coul/long/omp, perpetual
      attributes: half, newton on, omp
      pair build: half/bin/newton/omp
      stencil: half/bin/3d
      bin: standard
Per MPI rank memory allocation (min/avg/max) = 31.23 | 31.23 | 31.23 Mbytes
   Step          Temp          E_pair         E_mol          TotEng         Press     
         0   0             -1.3802283      0             -1.3802283     -1.9091073    
      1000   244.97829     -2.8147982      0              57.307781      2.9372644    
      2000   217.84894     -2.3855577      0              51.078935      19.431984    
Loop time of 0.6342 on 8 procs for 2000 steps with 150 atoms

Performance: 272.469 ns/day, 0.088 hours/ns, 3153.580 timesteps/s, 473.037 katom-step/s
795.5% CPU use with 1 MPI tasks x 8 OpenMP threads

MPI task timing breakdown:
Section |  min time  |  avg time  |  max time  |%varavg| %total
---------------------------------------------------------------
Pair    | 0.010352   | 0.010352   | 0.010352   |   0.0 |  1.63
Bond    | 0.0095406  | 0.0095406  | 0.0095406  |   0.0 |  1.50
Kspace  | 0.53428    | 0.53428    | 0.53428    |   0.0 | 84.24
Neigh   | 0.0008059  | 0.0008059  | 0.0008059  |   0.0 |  0.13
Comm    | 0.0056985  | 0.0056985  | 0.0056985  |   0.0 |  0.90
Output  | 2.2358e-05 | 2.2358e-05 | 2.2358e-05 |   0.0 |  0.00
Modify  | 0.072269   | 0.072269   | 0.072269   |   0.0 | 11.40
Other   |            | 0.001235   |            |       |  0.19

Nlocal:            150 ave         150 max         150 min
Histogram: 1 0 0 0 0 0 0 0 0 0
Nghost:            444 ave         444 max         444 min
Histogram: 1 0 0 0 0 0 0 0 0 0
Neighs:           1106 ave        1106 max        1106 min
Histogram: 1 0 0 0 0 0 0 0 0 0

Total # of neighbors = 1106
Ave neighs/atom = 7.3733333
Ave special neighs/atom = 2
Neighbor list builds = 27
Dangerous builds = 0

fix fgcmc CO2 gcmc 100 ${Nattempt} 0 0 25899 300 ${mu_kcal_mol} 0.1     mol CO2mol tfac_insert ${tfac} full_energy rigid mynvt
fix fgcmc CO2 gcmc 100 10 0 0 25899 300 ${mu_kcal_mol} 0.1     mol CO2mol tfac_insert ${tfac} full_energy rigid mynvt
fix fgcmc CO2 gcmc 100 10 0 0 25899 300 -9.9360205 0.1     mol CO2mol tfac_insert ${tfac} full_energy rigid mynvt
fix fgcmc CO2 gcmc 100 10 0 0 25899 300 -9.9360205 0.1     mol CO2mol tfac_insert 1.66666666666667 full_energy rigid mynvt

variable carbon atom "type==2"
group carbon dynamic all var carbon
dynamic group carbon defined
variable nC equal count(carbon)
fix myat1 all ave/time 10 10 1000 v_nC file number_CO2.dat
variable density equal v_nC*(2*15.9994+12.011)/vol/6.022e23*(1e8)^3
fix myat2 all ave/time 10 10 1000 v_density file density_CO2.dat
compute press all pressure thermo_temp
fix myat3 all ave/time 10 100 1000 c_press file pressure_CO2.dat
thermo_style custom step temp etotal v_nC

run ${Nstep}
run 2500000
Ewald initialization ...
  using 12-bit tables for long-range coulomb (src/kspace.cpp:342)
  G vector (1/distance) = 0.20077039
  estimated absolute RMS force accuracy = 0.0039018044
  estimated relative force accuracy = 1.1750168e-05
  KSpace vectors: actual max1d max3d = 1054 8 2456
                  kxmax kymax kzmax  = 8 8 8
Generated 1 of 1 mixed pair_coeff terms from geometric mixing rule
Last active /omp style is kspace_style ewald/omp
0 atoms in group FixGCMC:gcmc_exclusion_group:fgcmc
0 atoms in group FixGCMC:rotation_gas_atoms:fgcmc
WARNING: Neighbor exclusions used with KSpace solver may give inconsistent Coulombic energies (src/neighbor.cpp:658)
Per MPI rank memory allocation (min/avg/max) = 31.23 | 31.23 | 31.23 Mbytes
   Step          Temp          TotEng          v_nC     
      2000   217.84894      51.078935      50           
      3000   228.91855      56.178101      6            
      4000   50.522308      12.398601      1            
      5000   25.706354      6.2995268      3            
      6000   47.666832      11.6966        3            
      7000   9.6374465      2.364029       2            
      8000   40.21996       9.8680543      4            
      9000   15.699309      3.8523393      1            
     10000   45.106975      11.069569      1            
     11000   15.319151      3.7583935      2            
     12000   46.825814      11.490387      3            
     13000   29.625031      7.2679749      3            
     14000   49.854217      12.23093       4            
     15000   64.451811      15.810501      4            
     16000   54.121892      13.28094       5            
     17000   18.444725      4.5255879      2            
     18000   3.8547097      0.94501213     2            
     19000   34.137588      8.375682       4            
     20000   14.725513      3.6128104      2            
     21000   13.834929      3.3933563      2            
     22000   6.4270167      1.5756474      3            
     23000   29.585183      7.2590901      3            
     24000   1.8777787      0.46025927     1            
     25000   44.470812      10.912785      2            
     26000   30.680944      7.3244679      3            
     27000   4.057473       0.99519983     1            
     28000   50.096491      11.766859      5            
     29000   22.171599      5.4396148      3            
     30000   124.46432      30.543594      4            
     31000   28.421429      6.9733921      3            
     32000   55.756002      13.682004      3            
     33000   19.968303      4.8902037      5            
     34000   18.979214      4.6567035      2            
     35000   19.850236      4.8705058      2            
     36000   11.613315      2.8490065      2            
     37000   14.349319      3.5204221      2            
     38000   0.29456132     0.071704907    1            
     39000   71.275011      17.480586      2            
     40000   8.9372115      2.1916028      3            
     41000   11.15587       2.7372878      1            
     42000   28.615049      7.0216091      2            
     43000   14.389818      3.5309646      1            
     44000   13.033425      3.19721        2            
     45000   0.68395848     0.16727096     1            
     46000   35.899047      8.8091341      2            
     47000   30.231487      7.4086956      4            
     48000   15.987371      3.5115161      2            
     49000   65.637121      16.106947      3            
     50000   13.992009      3.4331675      2            
     51000   40.148871      9.8116681      4            
     52000   16.759924      4.1126362      1            
     53000   18.54027       4.5495683      1            
     54000   18.283914      4.4866535      1            
     55000   21.240629      5.2108615      3            
     56000   51.789323      12.708614      3            
     57000   16.748262      4.1097737      1            
     58000   26.975855      6.6126181      3            
     59000   37.051299      9.0913784      3            
     60000   55.370832      13.587278      3            
     61000   38.4354        9.4306463      3            
     62000   23.969575      5.881415       2            
     63000   46.14273       11.322638      3            
     64000   23.778248      5.8342237      2            
     65000   23.294983      5.7151851      2            
     66000   11.341811      2.7823246      2            
     67000   8.3025523      2.0370278      1            
     68000   54.022335      13.256226      3            
     69000   19.450176      4.7728767      1            
     70000   30.826406      7.5639659      3            
     71000   29.945048      7.3377823      3            
     72000   15.175859      3.7238734      1            
     73000   19.285965      4.7313131      3            
     74000   39.608195      9.7200586      1            
     75000   26.56711       6.5170777      4            
     76000   37.198493      9.1276599      3            
     77000   17.000439      4.1705571      3            
     78000   34.805517      8.5406617      2            
     79000   39.474185      9.6865331      2            
     80000   17.382038      4.2647107      2            
     81000   2.2548902      0.55281017     1            
     82000   44.096267      10.820488      3            
     83000   15.654784      3.2586612      2            
     84000   11.645704      2.8575028      1            
     85000   41.149944      10.097384      3            
     86000   2.2135268      0.54202393     2            
     87000   55.354797      13.583987      2            
     88000   80.109244      19.659233      3            
     89000   6.0723792      1.4890979      2            
     90000   8.5122289      2.0519221      2            
     91000   39.685476      9.7384846      2            
     92000   20.466044      5.0221914      1            
     93000   1.3195274      0.32325242     1            
     94000   27.564323      6.7633718      2            
     95000   35.605905      8.7372575      2            
     96000   34.479194      8.4602789      3            
     97000   12.912531      3.168407       1            
     98000   37.130121      9.1112033      2            
     99000   32.900095      8.0652226      4            
    100000   10.429296      2.5583383      2            
    101000   25.621574      6.2862925      3            
    102000   45.054445      11.056082      2            
    103000   43.799582      10.737046      5            
    104000   6.0383378      1.481343       1            
    105000   10.100379      2.4782504      1            
    106000   15.533849      3.8104785      3            
    107000   55.902323      13.718964      1            
    108000   45.373927      11.13354       4            
    109000   33.51009       8.2228345      2            
    110000   4.6598259      1.1430282      1            
    111000   14.48416       3.5534499      3            
    112000   13.492839      3.3108284      1            
    113000   33.738835      8.2783142      3            
    114000   33.434228      8.2005032      4            
    115000   11.009811      2.7008145      2            
    116000   44.840436      11.002988      3            
    117000   44.085697      10.812648      2            
    118000   32.050043      7.8543756      5            
    119000   40.720631      9.991823       4            
    120000   21.570805      5.2733807      3            
    121000   44.144278      10.8319        3            
    122000   23.838338      5.8492356      2            
    123000   59.454095      14.589127      4            
    124000   17.415619      4.2729929      2            
    125000   30.990568      7.60512        1            
    126000   13.304588      3.2644156      3            
    127000   12.13148       2.9767228      1            
    128000   2.4373062      0.59757884     1            
    129000   2.1411632      0.52489902     1            
    130000   12.896393      3.1644466      1            
    131000   3.3110596      0.81201517     1            
    132000   13.522099      3.0602198      2            
    133000   45.389247      11.124778      5            
    134000   15.405978      3.78035        1            
    135000   75.422593      18.507549      4            
    136000   69.797674      17.122587      5            
    137000   8.0840929      1.9813111      3            
    138000   50.228848      12.324753      4            
    139000   9.9470408      2.4406183      1            
    140000   67.356773      16.529496      2            
    141000   36.890619      9.0520162      3            
    142000   17.004039      4.1719782      2            
    143000   15.150789      3.7171619      2            
    144000   12.987592      3.1868301      1            
    145000   26.643509      6.5376614      2            
    146000   4.8211882      1.1820529      2            
    147000   31.727481      7.785094       3            
    148000   11.280429      2.7678579      1            
    149000   8.4606447      2.0758251      1            
    150000   19.37356       4.7533681      3            
    151000   57.052736      14.001298      1            
    152000   57.726965      14.165739      3            
    153000   4.385656       1.0757426      1            
    154000   0.74209947     0.18154017     1            
    155000   30.118835      7.3905541      2            
    156000   54.539052      13.384389      1            
    157000   18.70136       4.5908703      3            
    158000   20.118634      4.9357312      3            
    159000   16.256905      3.9891834      1            
    160000   55.380405      13.589566      3            
    161000   19.206791      4.7126808      2            
    162000   73.46578       17.729227      5            
    163000   30.981129      7.6022651      2            
    164000   5.3273343      1.306848       1            
    165000   23.556174      5.7793875      3            
    166000   9.8688608      2.421431       1            
    167000   31.257727      7.6674947      4            
    168000   8.7842767      2.1552515      1            
    169000   60.439688      14.830749      5            
    170000   10.120703      2.4832372      1            
    171000   16.125535      3.9562856      2            
    172000   18.915298      4.64103        2            
    173000   27.149123      6.6613956      3            
    174000   17.126021      4.2024831      1            
    175000   23.525164      5.7719264      3            
    176000   2.9256508      0.71742752     1            
    177000   21.257281      5.2151555      3            
    178000   10.185071      2.498463       2            
    179000   5.3289636      1.307249       1            
    180000   23.996797      5.887942       3            
    181000   66.206498      16.245767      4            
    182000   27.982819      6.8664027      2            
    183000   17.111738      4.1957042      3            
    184000   43.754697      10.737078      2            
    185000   17.879643      4.3868973      2            
    186000   81.036207      19.886549      4            
    187000   14.943225      3.6662237      2            
    188000   15.089692      3.7027261      1            
    189000   22.946652      5.6308723      2            
    190000   14.142888      3.4703614      1            
    191000   14.977652      3.6752296      1            
    192000   24.885078      6.067931       4            
    193000   47.624122      11.686671      2            
    194000   7.2874071      1.7878899      1            
    195000   65.461993      16.063995      3            
    196000   18.109412      4.443827       1            
    197000   1.0028283      0.24552946     1            
    198000   10.278262      2.5219046      1            
    199000   7.9057258      1.9396375      1            
    200000   15.838555      3.8865126      1            
    201000   15.004958      3.6819327      1            
    202000   50.176429      12.313122      2            
    203000   52.619875      12.903741      4            
    204000   2.0540074      0.50350837     1            
    205000   46.995354      11.531934      3            
    206000   1.8794754      0.46067441     1            
    207000   12.830481      3.1476855      2            
    208000   25.313074      6.204873       3            
    209000   17.552644      4.307184       1            
    210000   3.9517859      0.9692626      1            
    211000   40.25807       9.7656459      4            
    212000   99.774247      23.876261      5            
    213000   21.425265      5.2570099      2            
    214000   2.511877       0.6158782      1            
    215000   27.845927      6.7762507      2            
    216000   24.516073      6.0161488      1            
    217000   35.192284      8.4053346      5            
    218000   17.027588      4.1783258      1            
    219000   13.64063       3.3464669      2            
    220000   8.7402307      2.1444422      1            
    221000   19.612156      4.8114237      3            
    222000   6.7590397      1.6582183      1            
    223000   28.397118      6.9680512      2            
    224000   9.6592873      2.3699968      1            
    225000   28.514566      6.9974595      1            
    226000   44.348507      10.881387      4            
    227000   113.31369      27.807222      4            
    228000   22.449145      5.5079009      3            
    229000   26.417865      6.4822335      2            
    230000   26.913799      6.6031445      4            
    231000   8.1013869      1.9876571      1            
    232000   50.028728      12.276439      3            
    233000   28.479953      6.9884095      2            
    234000   8.3637406      2.052044       1            
    235000   15.423408      3.7771198      4            
    236000   6.8504033      1.680641       1            
    237000   6.6240043      1.6250767      1            
    238000   22.218174      5.4515863      2            
    239000   4.995643       1.2248021      2            
    240000   6.7665026      1.6593521      2            
    241000   20.089843      4.9291441      2            
    242000   18.561893      4.5548741      1            
    243000   26.930944      6.6088065      1            
    244000   6.8523042      1.6811079      1            
    245000   5.9389504      1.4569514      1            
    246000   40.253001      9.8764234      4            
    247000   38.469599      9.4406242      1            
    248000   6.5194258      1.5994129      1            
    249000   28.25018       6.9325752      1            
    250000   1.8283263      0.44812224     1            
    251000   2.2440606      0.55015215     1            
    252000   32.62589       8.0047775      4            
    253000   33.766272      8.2863331      1            
    254000   19.63293       4.8171664      2            
    255000   32.485554      7.9711831      3            
    256000   8.9894117      2.2055951      1            
    257000   21.344959      5.2368058      3            
    258000   7.8611268      1.9283532      2            
    259000   9.5019536      2.3308399      2            
    260000   6.0101423      1.4744231      1            
    261000   0.86929778     0.21275838     1            
    262000   27.798074      6.820429       3            
    263000   5.4441185      1.3355105      1            
    264000   10.096103      2.4772009      1            
    265000   6.5011303      1.5943253      2            
    266000   22.218957      5.4516445      2            
    267000   12.91467       3.1689338      1            
    268000   20.692904      5.0777568      2            
    269000   14.964108      3.667159       2            
    270000   54.873939      13.460476      4            
    271000   15.490378      3.8010623      1            
    272000   42.096709      10.329161      2            
    273000   8.2727452      2.0291582      2            
    274000   14.793781      3.6294988      2            
    275000   36.117933      8.8622388      3            
    276000   37.374684      9.1684005      4            
    277000   55.751972      13.68032       4            
    278000   45.731278      11.22097       4            
    279000   35.660687      8.750047       3            
    280000   17.407994      4.2711594      2            
    281000   16.247445      3.9855532      3            
    282000   40.340718      9.8989195      2            
    283000   45.489469      11.162065      3            
    284000   38.07675       9.342993       3            
    285000   59.526351      14.608848      4            
    286000   1.8394436      0.45085039     1            
    287000   9.3303768      2.2929107      2            
    288000   44.161747      10.836432      3            
    289000   13.083396      3.2097051      2            
    290000   29.066028      7.1315369      2            
    291000   23.329024      5.7248242      1            
    292000   15.024835      3.6862583      2            
    293000   25.270435      6.2012851      1            
    294000   71.947912      17.655541      4            
    295000   38.393212      9.4194874      5            
    296000   15.702632      3.8522307      2            
    297000   150.8871       36.739993      3            
    298000   30.972472      7.6001467      2            
    299000   28.663191      7.0351903      2            
    300000   33.575587      8.2370927      3            
    301000   9.8191059      2.4092186      1            
    302000   134.86864      33.096606      6            
    303000   32.665533      8.012615       5            
    304000   30.893643      7.5801327      3            
    305000   11.34378       2.7822284      3            
    306000   32.635723      8.0082886      2            
    307000   6.5366114      1.6036291      1            
    308000   65.636872      16.106738      3            
    309000   9.1056308      2.2341189      1            
    310000   32.327         7.9325541      2            
    311000   44.772643      10.986518      3            
    312000   8.8613524      2.1741667      1            
    313000   54.128792      13.283404      4            
    314000   32.293377      7.9239781      3            
    315000   21.90881       5.3750451      3            
    316000   79.616748      19.53896       1            
    317000   14.922044      3.6615827      1            
    318000   7.9405274      1.9476177      2            
    319000   24.562665      6.0270193      2            
    320000   38.929821      9.5525192      3            
    321000   8.6910948      2.1323828      1            
    322000   17.648229      4.3300234      2            
    323000   15.828961      3.883564       2            
    324000   18.560955      4.551489       2            
    325000   54.776122      13.252928      2            
    326000   20.010352      4.9095274      3            
    327000   20.77395       5.0971893      2            
    328000   21.108134      5.1786046      3            
    329000   26.023253      6.3854133      2            
    330000   9.637592       2.3646726      1            
    331000   18.212591      4.4685785      2            
    332000   20.882429      5.1233419      3            
    333000   95.193838      23.362069      2            
    334000   14.322829      3.5141995      2            
    335000   20.67106       5.0680883      3            
    336000   13.41589       3.2919422      1            
    337000   11.323171      2.7783462      1            
    338000   46.534899      11.418859      3            
    339000   12.766363      3.1319061      2            
    340000   26.091805      6.4023237      2            
    341000   16.970387      4.1642862      1            
    342000   40.929305      10.043749      2            
    343000   3.2381721      0.79345194     2            
    344000   33.796761      8.2919975      2            
    345000   56.227678      13.797592      3            
    346000   9.6787164      2.3747658      1            
    347000   33.928369      8.3255673      2            
    348000   8.4082153      2.0623718      2            
    349000   67.645854      16.599894      3            
    350000   11.129903      2.7302954      2            
    351000   7.7392396      1.8987786      1            
    352000   44.797468      10.983875      5            
    353000   70.957493      17.41319       2            
    354000   52.668733      12.924698      2            
    355000   35.948699      8.8214579      2            
    356000   68.544874      16.820508      3            
    357000   25.05515       6.1478589      2            
    358000   6.739098       1.6527172      2            
    359000   3.5332406      0.86654142     1            
    360000   20.184411      4.9525058      2            
    361000   13.524441      3.3169481      2            
    362000   18.564106      4.5554175      1            
    363000   22.827429      5.5961896      2            
    364000   27.535584      6.7558657      3            
    365000   33.658472      8.2598777      1            
    366000   64.500132      15.82707       4            
    367000   122.28692      30.00636       5            
    368000   45.650068      11.201496      3            
    369000   45.591266      11.187685      2            
    370000   33.352307      8.183043       4            
    371000   23.124682      5.6746738      1            
    372000   23.570416      5.7840662      1            
    373000   43.590253      10.696201      3            
    374000   12.219696      2.9932365      3            
    375000   47.223039      11.587711      3            
    376000   42.949496      10.540081      1            
    377000   11.997755      2.9432721      2            
    378000   21.155837      5.1908945      2            
    379000   38.603209      9.4588587      2            
    380000   32.443594      7.960537       3            
    381000   12.954427      3.17869        1            
    382000   41.327147      10.140842      3            
    383000   5.5198452      1.3535117      2            
    384000   21.295145      5.2256693      1            
    385000   21.092415      5.1752674      2            
    386000   24.109267      5.915051       3            
    387000   32.483075      7.9714126      1            
    388000   15.019356      3.6801848      5            
    389000   47.274598      11.600811      3            
    390000   8.9042513      2.1846966      1            
    391000   15.022908      3.6850613      3            
    392000   26.102903      6.40502        2            
    393000   32.784438      8.0439508      3            
    394000   18.083799      4.4375407      1            
    395000   42.826402      10.508797      3            
    396000   16.427648      4.030888       2            
    397000   4.8694222      1.1944693      1            
    398000   6.4324987      1.5780774      1            
    399000   8.6446479      2.1209848      1            
    400000   10.902539      2.6743777      2            
    401000   8.6192124      2.1147412      1            
    402000   15.455677      3.7921142      2            
    403000   33.649304      8.2557124      4            
    404000   26.049973      6.3923533      2            
    405000   26.216256      6.4327953      2            
    406000   87.929104      21.501626      3            
    407000   40.582077      9.9585246      2            
    408000   26.355336      6.4662255      3            
    409000   35.162998      8.6288384      2            
    410000   24.563347      6.0118901      4            
    411000   42.119947      10.335962      2            
    412000   7.9634504      1.9538038      1            
    413000   20.63739       5.0629138      3            
    414000   39.506714      9.6945539      2            
    415000   24.977213      6.1287554      2            
    416000   78.542908      19.270064      4            
    417000   37.767655      9.2671857      3            
    418000   24.59307       6.0344698      2            
    419000   5.9402089      1.4572598      1            
    420000   7.7086811      1.8902596      2            
    421000   22.207944      5.4491203      2            
    422000   65.533507      16.062703      6            
    423000   57.770898      14.175649      4            
    424000   2.5242205      0.61890791     1            
    425000   9.1414143      2.2429005      1            
    426000   14.80572       3.6325374      2            
    427000   10.658912      2.615325       1            
    428000   30.261258      7.4249617      3            
    429000   28.427031      6.9732146      2            
    430000   26.966282      6.6160848      4            
    431000   26.032406      6.3876972      2            
    432000   37.29339       9.1506979      3            
    433000   76.004781      18.650881      3            
    434000   14.037005      3.443888       2            
    435000   4.0802023      1.0007773      1            
    436000   54.551458      13.386568      2            
    437000   40.860109      10.027303      1            
    438000   20.567628      5.0459163      3            
    439000   4.8696042      1.1945119      1            
    440000   71.852205      17.632609      3            
    441000   52.696262      12.931067      3            
    442000   36.065759      8.8374608      3            
    443000   33.419664      8.2007234      2            
    444000   20.6244        5.0604839      2            
    445000   73.280213      17.983502      2            
    446000   86.363621      21.190252      5            
    447000   32.154882      7.8897158      3            
    448000   33.541197      8.2299026      3            
    449000   43.404285      10.651034      2            
    450000   19.763786      4.8486073      3            
    451000   30.38687       7.4545914      4            
    452000   33.015777      8.0876901      4            
    453000   37.891824      9.2984851      2            
    454000   57.665315      14.150258      3            
    455000   21.045494      5.1643991      1            
    456000   28.865547      7.0829717      2            
    457000   70.85926       17.387263      6            
    458000   18.670026      4.5814129      1            
    459000   16.235551      3.9839446      1            
    460000   10.425734      2.5580976      1            
    461000   17.442023      4.2785761      3            
    462000   42.842509      10.513284      2            
    463000   19.899447      4.8831374      1            
    464000   77.563539      19.030067      7            
    465000   36.281265      8.9030548      2            
    466000   79.786915      19.580111      2            
    467000   25.022709      6.1386758      4            
    468000   34.368542      8.409167       3            
    469000   24.954596      6.1232072      2            
    470000   8.3726327      2.0542258      1            
    471000   37.989471      9.3219839      3            
    472000   49.646609      12.181142      4            
    473000   12.386783      3.0393784      1            
    474000   22.463539      5.5119936      2            
    475000   1.0598126      0.25951291     1            
    476000   42.574813      10.448127      1            
    477000   4.1637421      1.02128        1            
    478000   20.569791      5.0471493      2            
    479000   3.1880753      0.78183153     1            
    480000   75.815404      18.570984      6            
    481000   36.222502      8.887269       4            
    482000   7.8043347      1.9147539      1            
    483000   10.652034      2.6100184      3            
    484000   22.454599      5.5102221      1            
    485000   38.201733      9.3735933      3            
    486000   38.842936      9.5316539      2            
    487000   21.186957      5.1985515      2            
    488000   4.1586547      1.0200315      1            
    489000   10.455223      2.5646734      2            
    490000   20.502812      5.0312145      1            
    491000   22.604549      5.5464546      2            
    492000   12.803422      3.1411399      2            
    493000   19.019548      4.6671914      1            
    494000   16.98022       4.1660819      2            
    495000   52.807914      12.957897      3            
    496000   62.587981      15.358794      3            
    497000   9.0265311      2.214707       1            
    498000   39.322646      9.648765       3            
    499000   8.4074293      2.0622365      2            
    500000   9.6325294      2.3634293      1            
    501000   93.058799      22.828619      5            
    502000   25.668538      6.2972324      3            
    503000   14.242561      3.4948231      1            
    504000   23.265014      5.708505       2            
    505000   18.759748      4.6028556      2            
    506000   38.28626       9.3719289      2            
    507000   17.990301      4.4145953      1            
    508000   56.839234      13.94832       2            
    509000   12.595901      3.0907016      1            
    510000   7.7507411      1.9016012      1            
    511000   2.6123661      0.64054129     1            
    512000   2.5119633      0.61589935     1            
    513000   43.330921      10.632562      3            
    514000   49.497973      12.146632      2            
    515000   24.291635      5.9592619      4            
    516000   61.386777      15.03916       5            
    517000   18.327539      4.4973602      1            
    518000   25.363029      6.2235092      2            
    519000   15.264584      3.7376795      3            
    520000   12.184443      2.9891549      2            
    521000   46.312156      11.362713      5            
    522000   14.500305      3.5575207      2            
    523000   42.41312       10.407233      3            
    524000   16.873876      4.1395098      3            
    525000   17.020865      4.1766758      1            
    526000   12.304897      3.0187451      2            
    527000   31.943171      7.8383295      2            
    528000   46.334541      11.369611      3            
    529000   18.119728      4.4451967      3            
    530000   55.28697       13.566164      4            
    531000   6.8818818      1.6877293      2            
    532000   2.9446096      0.72208055     1            
    533000   35.054416      8.6019386      2            
    534000   69.336767      17.01321       5            
    535000   27.313449      6.7021223      2            
    536000   87.090272      21.37116       4            
    537000   59.101313      14.499317      6            
    538000   23.947804      5.8762471      2            
    539000   86.088526      21.125938      3            
    540000   24.483224      6.0069052      3            
    541000   47.874069      11.746698      3            
    542000   48.960857      12.009332      4            
    543000   17.601735      4.3192326      1            
    544000   2.3840875      0.58451652     1            
    545000   24.138477      5.9222992      3            
    546000   6.8196203      1.6724997      2            
    547000   4.6649714      1.1442917      1            
    548000   25.860306      6.3442878      4            
    549000   7.9770327      1.9565364      2            
    550000   26.715852      6.5548364      3            
    551000   49.908039      12.244096      3            
    552000   40.910278      10.037815      4            
    553000   21.735786      5.3338124      1            
    554000   16.59101       4.0705539      2            
    555000   13.925073      3.4162948      2            
    556000   9.4149655      2.3100346      1            
    557000   34.21641       8.3968064      1            
    558000   15.283065      3.7501844      1            
    559000   30.524449      7.4901054      2            
    560000   20.321095      4.9860436      2            
    561000   16.882513      4.1421705      2            
    562000   28.403592      6.9702248      1            
    563000   9.6918477      2.3779888      1            
    564000   23.18152       5.6880907      2            
    565000   71.72478       17.600849      4            
    566000   3.1227942      0.7658095      1            
    567000   15.214164      3.7326417      2            
    568000   32.222869      7.9053718      4            
    569000   40.760976      9.9986985      4            
    570000   31.360746      7.6937953      4            
    571000   18.70107       4.5886261      3            
    572000   9.8296567      2.411809       1            
    573000   3.3949706      0.83260857     1            
    574000   15.101864      3.7057153      1            
    575000   36.249327      8.8383685      5            
    576000   71.984853      17.664276      4            
    577000   17.717445      4.3476299      1            
    578000   53.983892      13.246728      3            
    579000   1.5168258      0.37167382     1            
    580000   47.866387      11.745417      3            
    581000   22.928913      5.6258627      2            
    582000   41.74339       10.242523      5            
    583000   68.066057      16.703635      2            
    584000   11.894689      2.9179777      2            
    585000   0.93730089     0.22944673     1            
    586000   20.227722      4.963702       1            
    587000   1.7776865      0.4356944      1            
    588000   4.7374988      1.1620919      1            
    589000   19.651415      4.8222645      1            
    590000   7.7676948      1.9057619      1            
    591000   15.567043      3.8198781      1            
    592000   10.239729      2.5111563      3            
    593000   7.3808507      1.8108232      1            
    594000   29.820109      7.3153648      4            
    595000   38.791465      9.5187666      3            
    596000   33.255247      8.1595463      4            
    597000   34.294682      8.4146982      4            
    598000   17.141015      4.2061618      1            
    599000   16.281532      3.9946257      2            
    600000   18.966172      4.6540929      1            
    601000   31.881365      7.822563       3            
    602000   90.570895      22.225734      4            
    603000   16.988894      4.1688281      1            
    604000   44.181027      10.834725      3            
    605000   20.676511      5.0738431      1            
    606000   13.364527      3.2789023      2            
    607000   8.8301461      2.1665098      1            
    608000   39.858562      9.7801589      3            
    609000   19.065852      4.6780824      2            
    610000   49.501514      12.146759      3            
    611000   10.431763      2.5585405      3            
    612000   21.603648      5.3013815      1            
    613000   33.176077      8.1414892      1            
    614000   24.10863       5.916155       1            
    615000   16.525287      4.0550504      1            
    616000   33.440858      8.2064703      1            
    617000   28.988543      7.1137825      1            
    618000   12.38181       3.0375498      2            
    619000   2.0336675      0.49851738     1            
    620000   2.1501375      0.5271009      1            
    621000   116.70776      28.639756      4            
    622000   32.773851      8.0421887      2            
    623000   29.132028      7.1483539      2            
    624000   39.805431      9.767103       3            
    625000   28.616701      7.0225264      1            
    626000   7.6149396      1.8682731      1            
    627000   11.600168      2.8468709      2            
    628000   7.7207438      1.7707408      2            
    629000   0.7979923      0.19525793     1            
    630000   14.996325      3.6779036      4            
    631000   17.185806      4.2165373      2            
    632000   26.076411      6.397943       3            
    633000   64.310836      15.78138       3            
    634000   72.188393      17.713992      4            
    635000   8.5196965      2.090319       1            
    636000   51.679503      12.680357      3            
    637000   23.032916      5.6509128      3            
    638000   50.295041      12.333799      5            
    639000   42.223249      10.361222      2            
    640000   12.035815      2.9557429      2            
    641000   33.452551      8.2087762      2            
    642000   33.519711      8.2244566      3            
    643000   26.428702      6.4855461      1            
    644000   6.0159999      1.475285       2            
    645000   9.3477745      2.2929482      2            
    646000   1.204577       0.29504139     1            
    647000   13.615734      3.3409872      1            
    648000   31.288099      7.6775824      2            
    649000   24.759738      6.0750391      3            
    650000   10.041963      2.4639126      1            
    651000   22.164732      5.4385164      2            
    652000   55.250261      13.547121      5            
    653000   33.711257      8.2722052      2            
    654000   26.933842      6.6089694      2            
    655000   16.938394      4.1557421      2            
    656000   41.900378      10.281751      3            
    657000   5.8357742      1.4316294      1            
    658000   2.2468541      0.55083792     1            
    659000   33.117767      8.125619       3            
    660000   16.107997      3.9526398      1            
    661000   28.4051        6.9705936      1            
    662000   28.358879      6.9586455      2            
    663000   0.67284765     0.16454453     1            
    664000   13.513189      3.3153001      2            
    665000   13.046005      3.2005755      2            
    666000   5.1837538      1.2716111      1            
    667000   25.356361      6.2209846      3            
    668000   25.777451      6.3254849      2            
    669000   4.638532       1.137803       1            
    670000   35.623805      8.7422139      3            
    671000   46.777399      11.479525      1            
    672000   11.427714      2.8033791      2            
    673000   7.8519932      1.9264506      1            
    674000   8.0242548      1.9687263      1            
    675000   26.288128      6.4504256      2            
    676000   30.28976       7.430408       3            
    677000   16.712082      4.1008948      1            
    678000   28.979329      7.1104904      2            
    679000   24.458411      6.0003166      4            
    680000   4.5541299      1.1170895      1            
    681000   25.115315      6.1626005      2            
    682000   4.2640778      1.0459043      1            
    683000   11.838767      2.9044962      2            
    684000   18.252084      4.4788413      1            
    685000   3.6292257      0.89009801     1            
    686000   27.765197      6.8122966      3            
    687000   26.958956      6.6151274      2            
    688000   15.594672      3.8260633      2            
    689000   32.486795      7.9712733      3            
    690000   4.6478133      1.1400815      1            
    691000   40.420882      9.9184074      3            
    692000   15.804639      3.8776146      2            
    693000   6.8556809      1.6813648      2            
    694000   3.1639803      0.77591849     1            
    695000   46.608593      11.435907      5            
    696000   41.795826      10.255097      4            
    697000   54.958253      13.485875      3            
    698000   30.837779      7.5676228      1            
    699000   10.734406      2.6333539      2            
    700000   0.42520656     0.10376771     1            
    701000   5.678831       1.3921247      2            
    702000   59.097354      14.502408      2            
    703000   11.659265      2.8602859      2            
    704000   23.530698      5.7737485      2            
    705000   37.886868      9.2969233      2            
    706000   7.662901       1.8800444      1            
    707000   52.980158      13.001197      2            
    708000   46.643813      11.446171      3            
    709000   13.671967      3.3575236      2            
    710000   7.5708239      1.8574461      1            
    711000   8.6688304      2.126919       1            
    712000   15.394307      3.7790967      2            
    713000   41.385757      10.155232      4            
    714000   4.0680896      0.99780395     1            
    715000   82.380699      20.217288      1            
    716000   8.0451638      1.9738583      1            
    717000   31.382897      7.7014047      1            
    718000   9.7414493      2.389593       2            
    719000   25.893142      6.3525341      4            
    720000   35.786439      8.7810957      2            
    721000   68.65232       16.836072      3            
    722000   86.189829      21.150307      4            
    723000   27.849366      6.8329904      3            
    724000   19.07952       4.6819104      1            
    725000   1.4857477      0.36404616     1            
    726000   3.9510926      0.96909148     1            
    727000   24.711945      6.066418       2            
    728000   14.910519      3.6587555      1            
    729000   18.514275      4.5425396      2            
    730000   6.5451764      1.6050734      2            
    731000   28.409102      6.9709006      2            
    732000   2.9864336      0.73234407     1            
    733000   29.839276      7.3202793      4            
    734000   122.67201      30.104456      3            
    735000   29.583824      7.2614158      3            
    736000   60.606608      14.872904      2            
    737000   32.979115      8.0925711      2            
    738000   32.499058      7.973849       3            
    739000   6.7772726      1.6626923      1            
    740000   7.5192699      1.844794       1            
    741000   27.332388      6.7067687      2            
    742000   20.892233      5.1267879      1            
    743000   16.362291      4.0144527      2            
    744000   8.7239526      2.1404472      1            
    745000   9.5481571      2.3427233      1            
    746000   50.646846      12.428549      2            
    747000   32.629269      8.0066547      2            
    748000   21.285841      5.2228977      2            
    749000   6.1861607      1.5176217      1            
    750000   35.928647      8.8170235      1            
    751000   29.411406      7.2181862      2            
    752000   0.41670092     0.10168039     1            
    753000   26.258492      6.4437742      1            
    754000   11.56605       2.8379539      1            
    755000   7.0967941      1.7411099      1            
    756000   9.6377312      2.3647063      1            
    757000   10.148361      2.4900251      1            
    758000   43.802664      10.748888      2            
    759000   74.048254      18.170821      5            
    760000   31.559101      7.7446496      1            
    761000   20.517282      5.0341277      2            
    762000   73.752369      18.099098      4            
    763000   1.3037766      0.31938677     1            
    764000   39.953957      9.8032081      4            
    765000   13.171839      3.2320465      1            
    766000   28.113539      6.8984388      2            
    767000   59.692143      14.646977      4            
    768000   5.9685739      1.4642218      1            
    769000   16.049789      3.8888662      2            
    770000   6.7089562      1.6459261      1            
    771000   24.45366       6.0044152      2            
    772000   63.318732      15.532703      4            
    773000   84.194756      20.655196      4            
    774000   21.698595      5.3225793      4            
    775000   7.6023287      1.8651782      1            
    776000   11.628673      2.8527363      2            
    777000   22.829318      5.6020669      3            
    778000   104.12661      25.553771      2            
    779000   20.379797      5.0003756      2            
    780000   28.559124      7.0054075      2            
    781000   35.046437      8.5996776      2            
    782000   17.375724      4.2637663      1            
    783000   16.392446      4.0224501      1            
    784000   5.0702065      1.2437443      1            
    785000   24.4284        5.9934601      3            
    786000   31.773442      7.7945732      3            
    787000   22.561         5.5363359      1            
    788000   64.417524      15.768214      5            
    789000   11.645533      2.8574616      1            
    790000   15.101721      3.7045715      3            
    791000   23.05951       5.6581226      2            
    792000   24.618499      6.040281       3            
    793000   85.090377      20.880265      4            
    794000   37.737769      9.2597945      3            
    795000   1.8976067      0.46512462     1            
    796000   2.539955       0.62277103     1            
    797000   5.4541947      1.3379823      1            
    798000   15.927495      3.9083404      1            
    799000   13.018261      3.1943554      1            
    800000   6.8666872      1.6846381      1            
    801000   16.938693      4.1559551      2            
    802000   65.70933       16.122978      5            
    803000   44.404022      10.895877      3            
    804000   84.042702      20.624605      2            
    805000   30.549083      7.4957911      3            
    806000   23.573932      5.7843484      2            
    807000   5.4657817      1.3408261      1            
    808000   53.519063      13.122037      5            
    809000   9.7240074      2.3858811      1            
    810000   4.8430403      1.187993       1            
    811000   11.092571      2.7217547      1            
    812000   4.2291279      1.0373266      1            
    813000   5.5677219      1.3658456      1            
    814000   30.045726      7.372689       2            
    815000   3.4671353      0.85031789     1            
    816000   11.612938      2.8488206      2            
    817000   40.251107      9.8772148      2            
    818000   7.0082173      1.7193705      1            
    819000   51.612339      12.66492       3            
    820000   21.541328      5.2854929      2            
    821000   39.036398      9.5784511      3            
    822000   7.0371236      1.7258803      2            
    823000   47.071361      11.549744      4            
    824000   57.245254      14.048546      1            
    825000   39.287713      9.6407691      2            
    826000   15.845129      3.8875215      2            
    827000   65.72558       16.117051      4            
    828000   4.606993       1.1307148      2            
    829000   43.222905      10.605963      3            
    830000   18.719265      4.5929013      2            
    831000   8.2050764      2.0131047      1            
    832000   84.51603       20.739644      4            
    833000   5.6093303      1.3754234      2            
    834000   27.540856      6.7573699      4            
    835000   11.859077      2.9098699      1            
    836000   0.48032637     0.11729574     1            
    837000   11.399513      2.7965486      2            
    838000   40.946846      10.047148      3            
    839000   60.824535      14.928942      4            
    840000   20.596213      5.0454915      2            
    841000   51.248922      12.576343      2            
    842000   17.082572      4.1912307      2            
    843000   30.338634      6.9893331      4            
    844000   12.73457       3.124732       1            
    845000   25.136103      6.1679347      2            
    846000   26.0122        6.3756886      3            
    847000   9.9101666      2.4315675      1            
    848000   32.191115      7.8949762      4            
    849000   23.657185      5.8053607      1            
    850000   10.810226      2.6518482      2            
    851000   34.179148      8.3852815      3            
    852000   28.564034      7.0090777      2            
    853000   21.730976      5.3321631      2            
    854000   24.735243      6.0693698      2            
    855000   44.54559       10.930125      4            
    856000   10.49488       2.574479       2            
    857000   42.025273      10.312664      2            
    858000   8.645359       2.1211586      1            
    859000   29.691782      7.2863715      1            
    860000   8.3229008      2.0420219      1            
    861000   26.75825       6.5658629      2            
    862000   12.167897      2.9856601      1            
    863000   6.9237097      1.6980297      2            
    864000   49.997197      12.268034      4            
    865000   36.806043      9.0314775      3            
    866000   26.891482      6.598566       2            
    867000   44.662612      10.957777      5            
    868000   18.436927      4.5230748      2            
    869000   76.034667      18.659111      2            
    870000   4.5577751      1.117983       1            
    871000   30.835082      7.5668363      2            
    872000   26.09545       6.4037612      1            
    873000   34.604617      8.4909744      3            
    874000   7.6171874      1.8688247      1            
    875000   26.471462      6.4954156      2            
    876000   41.81319       10.264001      5            
    877000   50.259404      12.312442      2            
    878000   8.9932429      2.2059408      2            
    879000   37.661073      9.2415826      2            
    880000   12.347535      3.0291639      2            
    881000   12.070548      2.960813       2            
    882000   90.59751       22.231794      3            
    883000   19.563365      4.8006552      1            
    884000   10.916119      2.6779306      2            
    885000   8.7882525      2.1562279      1            
    886000   4.8790955      1.1968411      1            
    887000   20.196912      4.9561406      1            
    888000   58.781429      14.424419      3            
    889000   70.732708      17.358047      2            
    890000   24.931773      6.1170965      3            
    891000   35.708868      8.7613562      4            
    892000   8.2129163      2.0150284      1            
    893000   24.417634      5.9913675      2            
    894000   49.417789      12.126961      2            
    895000   59.725421      14.65497       3            
    896000   18.767691      4.6042089      3            
    897000   3.6751955      0.90138098     1            
    898000   40.326656      9.8951536      3            
    899000   6.9256632      1.698518       2            
    900000   32.176101      7.8948815      3            
    901000   40.272988      9.8827359      2            
    902000   144.07335      35.357898      1            
    903000   53.349323      13.091817      2            
    904000   36.164799      8.8736382      3            
    905000   16.088219      3.9477845      1            
    906000   44.401403      10.89582       2            
    907000   51.560552      12.648682      5            
    908000   8.7822372      2.1541769      2            
    909000   2.5586432      0.62735568     1            
    910000   14.761081      3.622079       1            
    911000   67.209404      16.238866      4            
    912000   19.857637      4.8728762      1            
    913000   24.820732      6.0909191      1            
    914000   38.947088      9.5564158      4            
    915000   12.81992       3.1450675      2            
    916000   4.5726519      1.1216341      1            
    917000   25.068826      6.1511868      2            
    918000   36.493748      8.9553092      4            
    919000   9.7765932      2.398116       2            
    920000   15.705294      3.8521434      3            
    921000   91.116428      22.296824      5            
    922000   2.9475394      0.72279879     1            
    923000   46.493091      11.398051      3            
    924000   38.917966      9.5494567      2            
    925000   42.553491      10.441536      3            
    926000   68.318133      16.765407      2            
    927000   49.472901      12.140252      4            
    928000   29.130637      7.148045       2            
    929000   44.557611      10.933783      3            
    930000   8.937493       2.1923167      2            
    931000   3.7749866      0.9258714      1            
    932000   17.849092      4.3799387      1            
    933000   5.9338107      1.4556912      1            
    934000   56.627976      13.896486      2            
    935000   74.762948      18.279533      7            
    936000   66.008877      16.197231      4            
    937000   26.552084      6.5152558      2            
    938000   58.912324      14.454761      6            
    939000   13.840302      3.3955486      2            
    940000   10.517535      2.5794675      3            
    941000   25.776807      6.323793       4            
    942000   0.18332341     0.044406415    1            
    943000   18.51068       4.5411383      3            
    944000   42.63706       10.462664      2            
    945000   20.933844      5.1364443      2            
    946000   21.821978      5.3549642      1            
    947000   39.79414       9.7645399      3            
    948000   5.6404992      1.3798373      2            
    949000   31.496081      7.7280278      3            
    950000   12.95678       3.1792678      1            
    951000   2.4905068      0.61063383     1            
    952000   9.1626294      2.2198705      4            
    953000   32.089918      7.8743117      2            
    954000   10.137131      2.4872702      1            
    955000   56.796302      13.936915      4            
    956000   90.755796      22.27153       4            
    957000   37.611028      9.2284035      4            
    958000   4.344757       1.0657048      1            
    959000   20.994508      5.1512751      2            
    960000   7.2947645      1.7884221      3            
    961000   46.265015      11.353775      1            
    962000   8.9045264      2.1847628      1            
    963000   34.0661        8.3599187      1            
    964000   28.712545      7.0436705      5            
    965000   12.529154      3.0743198      1            
    966000   53.301125      13.080067      2            
    967000   46.129169      11.319177      3            
    968000   24.415324      5.9903242      3            
    969000   20.045049      4.9188699      1            
    970000   4.5354771      1.1125104      1            
    971000   7.1914035      1.7643286      1            
    972000   12.656773      3.1056394      1            
    973000   64.968683      15.937849      6            
    974000   20.349422      4.9935691      1            
    975000   9.6863534      2.3766393      1            
    976000   7.2648604      1.782357       1            
    977000   14.442048      3.5437822      1            
    978000   4.4593545      1.0938296      1            
    979000   31.288693      7.6771897      3            
    980000   7.3011257      1.7906696      2            
    981000   115.59503      28.357253      7            
    982000   22.380491      5.4914536      2            
    983000   10.904777      2.6756646      1            
    984000   14.004134      3.4357905      2            
    985000   13.555971      3.3257488      2            
    986000   45.780915      10.834882      4            
    987000   37.288734      9.150816       1            
    988000   4.3735269      1.0727651      1            
    989000   36.233354      8.8914824      2            
    990000   64.650022      15.865246      2            
    991000   32.270748      7.9178916      3            
    992000   31.51448       7.7330461      2            
    993000   10.393142      2.5500997      1            
    994000   35.555254      8.7251826      3            
    995000   42.330174      10.386995      3            
    996000   38.608018      9.474595       1            
    997000   20.032084      4.9156892      1            
    998000   12.695116      3.115049       1            
    999000   31.061701      7.62199        2            
   1000000   9.9724199      2.4463164      2            
   1001000   52.165292      12.800456      3            
   1002000   9.1909476      2.2550574      1            
   1003000   14.547858      3.547064       3            
   1004000   43.095879      10.575621      2            
   1005000   10.896958      2.6745483      2            
   1006000   5.4663797      1.3409734      1            
   1007000   76.962753      18.88541       5            
   1008000   30.680734      7.5278339      3            
   1009000   12.385131      3.0389728      1            
   1010000   48.033154      11.786502      3            
   1011000   7.7741996      1.9073586      1            
   1012000   11.539151      2.8313545      1            
   1013000   28.32378       6.9483028      4            
   1014000   56.497192      13.86443       2            
   1015000   24.998477      6.1340865      2            
   1016000   32.68637       8.0214298      3            
   1017000   12.33979       3.0278448      1            
   1018000   12.792046      3.1382739      2            
   1019000   25.896469      6.354297       2            
   1020000   3.9943785      0.97971614     1            
   1021000   36.519737      8.9605231      4            
   1022000   61.9094        15.191787      3            
   1023000   5.5914138      1.3716594      1            
   1024000   4.3732241      1.0721016      2            
   1025000   1.9478083      0.47744443     1            
   1026000   18.87974       4.6315909      3            
   1027000   3.8864805      0.95323486     1            
   1028000   24.566976      6.0280205      2            
   1029000   28.212545      6.9221745      3            
   1030000   36.611571      8.9633818      4            
   1031000   74.367163      18.230284      6            
   1032000   6.5220909      1.5994313      2            
   1033000   4.4978692      1.1027245      2            
   1034000   35.7437        8.7704925      3            
   1035000   100.36024      24.62775       6            
   1036000   29.798842      7.311522       3            
   1037000   10.103111      2.4789207      1            
   1038000   59.042929      14.488827      3            
   1039000   19.022132      4.6678266      1            
   1040000   74.524586      18.288658      2            
   1041000   14.422533      3.5389922      1            
   1042000   18.616489      4.5672503      3            
   1043000   47.319387      11.611962      2            
   1044000   25.047855      6.1461406      2            
   1045000   3.0002159      0.73520492     2            
   1046000   36.951688      9.060508       3            
   1047000   8.7977915      2.1585695      1            
   1048000   42.498528      10.428514      3            
   1049000   49.257857      12.086598      4            
   1050000   59.845792      14.686219      2            
   1051000   43.394923      10.648118      3            
   1052000   28.26457       6.9349519      3            
   1053000   22.119112      5.4210237      4            
   1054000   15.75013       3.8648116      1            
   1055000   72.75906       17.826227      6            
   1056000   36.847878      9.0418191      3            
   1057000   35.363992      8.6779393      2            
   1058000   94.453118      23.172887      7            
   1059000   19.728188      4.8405243      2            
   1060000   72.457315      17.580489      5            
   1061000   38.542451      9.4573317      3            
   1062000   22.130028      5.4305664      1            
   1063000   83.730945      20.545498      5            
   1064000   14.417527      3.5372152      2            
   1065000   2.0797612      0.50982888     1            
   1066000   94.527648      23.195038      5            
   1067000   34.799643      8.538662       3            
   1068000   9.5630808      2.346385       1            
   1069000   14.618636      3.5871205      1            
   1070000   28.344683      6.9541276      4            
   1071000   67.356198      16.519322      2            
   1072000   14.480868      3.5527738      2            
   1073000   16.710671      4.0998871      2            
   1074000   6.1152025      1.5002067      1            
   1075000   79.664343      19.550037      2            
   1076000   8.5209955      2.0906385      1            
   1077000   36.067246      8.8500476      3            
   1078000   51.48349       12.631972      5            
   1079000   11.742792      2.880722       2            
   1080000   5.5670886      1.3656903      1            
   1081000   35.937913      8.818733       2            
   1082000   18.428127      4.5224631      3            
   1083000   35.542338      8.7206413      4            
   1084000   34.998269      8.5827742      3            
   1085000   18.309418      4.4929128      1            
   1086000   12.032603      2.9517174      2            
   1087000   56.422892      13.846266      2            
   1088000   36.16326       8.8728813      3            
   1089000   28.897957      7.0904021      3            
   1090000   5.5064785      1.3508135      1            
   1091000   9.0073785      2.2094452      2            
   1092000   5.7769433      1.4171916      1            
   1093000   16.982852      4.1667775      2            
   1094000   31.386272      7.7016166      2            
   1095000   54.172091      13.291781      5            
   1096000   20.923442      5.1275739      3            
   1097000   48.9451        12.00272       5            
   1098000   30.071974      7.3740652      4            
   1099000   137.35837      33.706071      6            
   1100000   35.310181      8.6646337      2            
   1101000   28.772182      7.0594586      3            
   1102000   51.022893      12.524936      3            
   1103000   28.438724      6.9775555      3            
   1104000   4.9179058      1.2063666      1            
   1105000   7.8525152      1.9258999      2            
   1106000   19.254931      4.7238075      3            
   1107000   73.258458      17.974575      3            
   1108000   116.4672       28.573897      7            
   1109000   24.952119      5.9553892      3            
   1110000   5.9734121      1.4654098      1            
   1111000   48.980203      11.970491      5            
   1112000   16.647755      4.0847724      2            
   1113000   24.836174      6.094091       2            
   1114000   25.490779      6.2538178      5            
   1115000   9.3530713      2.2948449      1            
   1116000   52.479362      12.878901      1            
   1117000   90.664668      21.474596      5            
   1118000   30.135849      7.3953544      1            
   1119000   41.196023      10.107659      4            
   1120000   25.87726       6.3470259      4            
   1121000   45.16364       11.079564      6            
   1122000   16.296081      3.998798       1            
   1123000   42.478381      10.423797      2            
   1124000   18.312523      4.4930602      2            
   1125000   51.855174      12.725088      2            
   1126000   29.976101      7.3561999      3            
   1127000   8.9375162      2.19123        2            
   1128000   64.770199      15.858486      4            
   1129000   7.8169249      1.9178437      1            
   1130000   9.4359952      2.315197       1            
   1131000   22.133009      5.4312976      1            
   1132000   26.412984      6.4811719      2            
   1133000   2.0712447      0.50773831     1            
   1134000   8.858283       2.1714711      2            
   1135000   22.061549      5.4124099      3            
   1136000   64.555845      15.843838      5            
   1137000   77.600977      19.04259       3            
   1138000   32.702536      8.0239105      3            
   1139000   50.711022      12.44372       3            
   1140000   21.13676       5.1855177      3            
   1141000   2.9992393      0.73548677     1            
   1142000   51.141351      12.549326      3            
   1143000   26.243581      6.4401147      1            
   1144000   87.19921       21.296594      6            
   1145000   11.539457      2.8314283      1            
   1146000   15.472241      3.7960344      2            
   1147000   36.015788      8.8372389      4            
   1148000   22.878937      5.6137851      2            
   1149000   84.160252      20.652484      4            
   1150000   6.3765863      1.5637463      2            
   1151000   20.974061      5.1451475      4            
   1152000   24.929567      6.116102       3            
   1153000   13.05121       3.2024426      1            
   1154000   40.123154      9.8452655      3            
   1155000   10.081663      2.4736571      1            
   1156000   5.3769995      1.3190375      1            
   1157000   37.547563      9.2137652      2            
   1158000   54.069216      13.269082      1            
   1159000   25.204456      6.1826833      4            
   1160000   19.540966      4.7930248      4            
   1161000   19.069451      4.6788555      2            
   1162000   39.644463      9.7313045      4            
   1163000   47.637692      11.65744       3            
   1164000   1.2012228      0.29421792     1            
   1165000   62.329198      15.291845      4            
   1166000   51.329408      12.595064      4            
   1167000   51.307121      12.588625      5            
   1168000   7.8369472      1.9227581      1            
   1169000   36.614842      8.983495       4            
   1170000   14.378155      3.527492       2            
   1171000   110.5153       27.103526      6            
   1172000   2.2630422      0.55481074     1            
   1173000   47.383059      11.62645       4            
   1174000   22.040331      5.4079284      3            
   1175000   133.6564       32.796876      8            
   1176000   24.576509      6.0309822      1            
   1177000   30.524733      7.489647       3            
   1178000   13.311673      3.2657709      2            
   1179000   26.654094      6.5396596      3            
   1180000   16.376161      4.0179045      2            
   1181000   15.976832      3.9199691      2            
   1182000   40.598809      9.9618546      3            
   1183000   36.828857      9.0373399      2            
   1184000   15.075901      3.6993425      1            
   1185000   166.02282      40.702644      3            
   1186000   45.820411      11.243389      3            
   1187000   47.676042      11.699516      2            
   1188000   13.573009      3.3298659      2            
   1189000   36.897372      9.0532884      3            
   1190000   50.476952      12.386658      3            
   1191000   30.519932      7.4885192      3            
   1192000   43.165173      10.592408      2            
   1193000   76.978237      18.888293      4            
   1194000   20.420729      5.0038399      4            
   1195000   2.9430872      0.72170606     1            
   1196000   26.218377      6.4283422      4            
   1197000   16.256507      3.9886968      2            
   1198000   59.440245      14.586005      3            
   1199000   2.8492509      0.69867669     1            
   1200000   47.006784      11.534857      3            
   1201000   15.673224      3.8453915      2            
   1202000   17.628491      4.3257994      1            
   1203000   52.475605      12.877922      2            
   1204000   29.051549      7.1277956      4            
   1205000   24.437461      5.9962521      2            
   1206000   45.452897      11.154465      1            
   1207000   28.727638      7.0497523      1            
   1208000   18.258533      4.4796807      3            
   1209000   24.666091      6.0529669      1            
   1210000   19.117571      4.6907023      2            
   1211000   46.884876      11.506241      2            
   1212000   48.234347      11.835504      5            
   1213000   54.915827      13.476214      2            
   1214000   2.0783885      0.50949201     1            
   1215000   7.0187097      1.7220052      2            
   1216000   24.475956      6.0057853      2            
   1217000   52.785574      12.950333      4            
   1218000   30.852263      7.5620971      3            
   1219000   32.586313      7.9960301      3            
   1220000   14.984163      3.6762363      2            
   1221000   27.194135      6.6723355      3            
   1222000   56.100504      13.767074      2            
   1223000   39.359725      9.6579764      3            
   1224000   11.444469      2.8075055      2            
   1225000   11.545571      2.8329286      1            
   1226000   17.05266       4.1832972      3            
   1227000   15.208655      3.7319225      1            
   1228000   45.059595      11.056631      3            
   1229000   24.053001      5.9019086      2            
   1230000   2.722694       0.66761776     1            
   1231000   19.802015      4.8592265      1            
   1232000   10.376671      2.5454812      2            
   1233000   13.413716      3.2908244      2            
   1234000   23.329627      5.7249722      1            
   1235000   17.436693      4.2775396      3            
   1236000   16.291896      3.9958685      2            
   1237000   29.210355      7.1682203      1            
   1238000   63.750882      15.643621      3            
   1239000   32.125344      7.8823466      3            
   1240000   48.456925      11.889839      4            
   1241000   11.005958      2.6999008      2            
   1242000   31.573867      7.7454776      4            
   1243000   14.862069      3.6468631      1            
   1244000   28.1297        6.9018672      3            
   1245000   20.477516      5.023012       4            
   1246000   42.060273      10.321292      2            
   1247000   51.481302      12.598491      3            
   1248000   24.593492      6.0345265      2            
   1249000   77.472023      19.011559      3            
   1250000   3.6712752      0.90041832     1            
   1251000   9.8910945      2.4268868      1            
   1252000   112.49532      27.606786      3            
   1253000   32.459498      7.9599722      4            
   1254000   3.3905663      0.83091021     2            
   1255000   17.92846       4.3981818      3            
   1256000   26.097658      6.4033515      3            
   1257000   5.5192311      1.3539454      1            
   1258000   7.529078       1.8472         1            
   1259000   48.816057      11.979278      2            
   1260000   92.241366      22.634924      5            
   1261000   24.00887       5.8910698      2            
   1262000   24.915346      6.1037693      2            
   1263000   14.448632      3.5453972      1            
   1264000   22.412096      5.4991999      2            
   1265000   34.844798      8.5481248      5            
   1266000   95.499275      23.435292      4            
   1267000   27.830563      6.829508       3            
   1268000   0.79022471     0.19335155     1            
   1269000   27.532044      6.7557199      2            
   1270000   8.4295455      2.0681949      1            
   1271000   95.689923      23.475108      4            
[...]
   2175000   20.484193      5.0247088      4            
   2176000   70.999885      17.404672      6            
   2177000   19.858797      4.8731598      1            
   2178000   30.686601      7.5292198      4            
   2179000   26.489424      6.5002173      3            
   2180000   80.443929      19.739702      5            
   2181000   1.6588275      0.40652487     1            
   2182000   63.612431      15.609234      4            
   2183000   36.33489       8.9161082      2            
   2184000   58.717836      14.408191      4            
   2185000   27.959603      6.8078138      5            
   2186000   23.910231      5.8674633      1            
   2187000   42.410958      10.405626      5            
   2188000   14.498906      3.5564564      3            
   2189000   28.591056      7.0154511      2            
   2190000   17.230146      4.2280369      1            
   2191000   40.418363      9.9183244      2            
   2192000   38.259587      9.388554       2            
   2193000   64.261485      15.769892      2            
   2194000   33.226318      8.152502       3            
   2195000   53.081182      13.023373      5            
   2196000   18.682679      4.5840273      2            
   2197000   25.353644      6.2212367      2            
   2198000   9.2954054      2.2806928      1            
   2199000   15.044696      3.6910614      2            
   2200000   18.308502      4.4926862      1            
   2201000   25.037155      6.1369624      4            
   2202000   14.014367      3.4376472      3            
   2203000   22.084906      5.4194936      1            
   2204000   7.3150111      1.7946644      1            
   2205000   15.296957      3.7535934      1            
   2206000   46.981362      11.527461      4            
   2207000   139.87122      34.326613      1            
   2208000   19.628796      4.8160618      2            
   2209000   35.458483      8.7012095      2            
   2210000   19.065433      4.6772478      3            
   2211000   39.626399      9.7234571      3            
   2212000   39.717071      9.7446114      4            
   2213000   48.240704      11.840783      4            
   2214000   86.093753      21.12669       5            
   2215000   29.500169      7.2393479      1            
   2216000   14.600111      3.5820066      2            
   2217000   61.112107      14.991926      5            
   2218000   38.352537      9.4113623      2            
   2219000   25.519228      6.2602007      4            
   2220000   19.81502       4.861842       2            
   2221000   23.36671       5.7331561      3            
   2222000   11.111769      2.7264644      1            
   2223000   21.709737      5.326134       3            
   2224000   16.078577      3.9444638      3            
   2225000   29.207943      7.1670481      2            
   2226000   25.808031      6.3332224      1            
   2227000   9.8118964      2.4074503      1            
   2228000   25.243128      6.1939975      2            
   2229000   56.901213      13.963302      2            
   2230000   39.653147      9.730087       3            
   2231000   37.206732      9.1301265      3            
   2232000   39.216109      9.6196505      4            
   2233000   14.012271      3.4383054      1            
   2234000   25.341152      6.219308       3            
   2235000   30.670941      7.5256652      2            
   2236000   10.753969      2.6386528      1            
   2237000   89.276677      21.907724      4            
   2238000   49.808385      12.222176      3            
   2239000   53.087159      13.02753       2            
   2240000   18.892449      4.6359994      1            
   2241000   59.662926      14.64025       4            
   2242000   34.669092      8.5061075      2            
   2243000   20.60945       5.0567764      2            
   2244000   9.5228107      2.3358884      2            
   2245000   4.4314215      1.0869748      1            
   2246000   16.92261       4.1525615      1            
   2247000   34.143873      8.3790038      1            
   2248000   68.604723      16.834436      5            
   2249000   3.0521678      0.74847868     1            
   2250000   13.154021      3.2270699      2            
   2251000   73.612995      18.065191      4            
   2252000   22.169971      5.4391786      3            
   2253000   3.9207093      0.96163447     1            
   2254000   85.147259      20.892654      6            
   2255000   60.700772      14.885066      4            
   2256000   38.626776      9.4780111      3            
   2257000   6.2870416      1.5423802      1            
   2258000   50.389913      12.364617      3            
   2259000   4.9351706      1.2106041      1            
   2260000   28.165291      6.9100764      2            
   2261000   19.342516      4.7458992      2            
   2262000   29.03811       7.1254105      2            
   2263000   41.735532      10.240964      3            
   2264000   35.488914      8.7091046      1            
   2265000   34.981658      8.5840156      2            
   2266000   26.974495      6.6176554      3            
   2267000   28.172857      6.9135979      1            
   2268000   11.180449      2.7433205      1            
   2269000   11.770834      2.8882129      1            
   2270000   1.6837784      0.41264644     1            
   2271000   32.797492      8.0489524      4            
   2272000   21.610229      5.3017998      3            
   2273000   5.0538487      1.2397307      1            
   2274000   45.157945      11.080265      3            
   2275000   6.0014291      1.472285       1            
   2276000   33.636795      8.2535295      3            
   2277000   13.733889      3.3694149      2            
   2278000   21.147631      5.1881636      3            
   2279000   4.834855       1.1859835      1            
   2280000   9.7238693      2.385846       1            
   2281000   5.5393446      1.3583089      2            
   2282000   3.427536       0.84060005     1            
   2283000   1.5111712      0.3702861      1            
   2284000   40.743113      9.9974585      3            
   2285000   21.776347      5.343766       1            
   2286000   43.561792      10.6891        3            
   2287000   7.2195991      1.7712487      1            
   2288000   31.297021      7.6803307      1            
   2289000   1.3452023      0.32955361     1            
   2290000   11.879772      2.914948       1            
   2291000   43.10157       10.576809      2            
   2292000   32.497215      7.9742882      2            
   2293000   111.27534      27.293663      7            
   2294000   10.118325      2.482653       1            
   2295000   50.945148      12.500689      4            
   2296000   32.637308      8.0067773      5            
   2297000   73.452122      18.02528       4            
   2298000   32.406207      7.9513351      3            
   2299000   12.648444      3.1035948      1            
   2300000   65.63166       16.105541      3            
   2301000   34.837855      8.5492389      3            
   2302000   33.94078       8.3201511      5            
   2303000   35.228405      8.6434633      4            
   2304000   33.982671      8.3388833      2            
   2305000   22.751135      5.5746191      4            
   2306000   10.317573      2.5309991      2            
   2307000   61.702675      15.141457      3            
   2308000   9.4665105      2.3226847      1            
   2309000   23.60951       5.7930852      2            
   2310000   34.424132      8.4416712      3            
   2311000   10.416642      2.5552868      2            
   2312000   12.655913      3.1054286      1            
   2313000   18.138257      4.4502755      2            
   2314000   18.405333      4.5158364      2            
   2315000   48.054846      11.772006      5            
   2316000   31.50688       7.7304864      3            
   2317000   16.553083      4.0618724      1            
   2318000   15.093598      3.7031779      2            
   2319000   29.972192      7.3540558      3            
   2320000   4.6715309      1.1459017      1            
   2321000   22.17426       5.4408489      2            
   2322000   2.6012199      0.63780571     1            
   2323000   4.5274292      1.1105374      1            
   2324000   46.342446      11.371301      3            
   2325000   108.28915      26.574594      3            
   2326000   28.178152      6.9136473      3            
   2327000   13.854739      3.3996447      1            
   2328000   3.4235744      0.83962696     1            
   2329000   2.278143       0.55851622     1            
   2330000   40.216722      9.8683567      3            
   2331000   48.240022      11.837888      2            
   2332000   9.5015242      2.3312781      1            
   2333000   43.32588       10.631858      2            
   2334000   10.939797      2.6836417      2            
   2335000   48.30754       11.852467      5            
   2336000   19.622399      4.8145362      2            
   2337000   29.492725      7.2363228      4            
   2338000   19.188057      4.708548       1            
   2339000   45.123568      11.033181      3            
   2340000   21.01929       5.1579689      1            
   2341000   76.464152      18.763203      4            
   2342000   63.382413      15.553656      3            
   2343000   5.4205483      1.3297244      1            
   2344000   67.649229      16.59366       7            
   2345000   30.593473      7.5065842      4            
   2346000   29.309193      7.1909534      4            
   2347000   0.77820221     0.19040205     1            
   2348000   20.516517      5.033964       2            
   2349000   26.990338      6.6216603      4            
   2350000   4.2746666      1.0485021      1            
   2351000   23.074756      5.6608498      3            
   2352000   14.17464       3.478154       1            
   2353000   13.654715      3.3499426      2            
   2354000   24.67576       6.0547457      2            
   2355000   9.0738978      2.2263313      1            
   2356000   54.030352      13.25783       4            
   2357000   13.658959      3.3510129      2            
   2358000   50.792116      12.464446      3            
   2359000   43.606461      10.699341      4            
   2360000   70.766004      17.333972      5            
   2361000   2.851937       0.69933686     1            
   2362000   14.627078      3.5891919      1            
   2363000   21.642063      5.3108097      1            
   2364000   1.5301722      0.37494823     1            
   2365000   17.87945       4.3873885      1            
   2366000   30.578376      7.5017409      4            
   2367000   16.33446       4.0077956      3            
   2368000   16.550901      4.058244       2            
   2369000   2.9526657      0.72405689     1            
   2370000   110.18709      26.800236      5            
   2371000   38.815937      9.5250486      2            
   2372000   40.322368      9.8953305      1            
   2373000   24.68023       5.9949996      3            
   2374000   49.688021      12.193849      1            
   2375000   21.9902        5.395676       2            
   2376000   44.134041      10.327938      4            
   2377000   83.506269      20.493525      1            
   2378000   24.687624      6.0582523      1            
   2379000   17.035791      4.1803386      1            
   2380000   11.655327      2.8592793      2            
   2381000   84.529731      20.733395      6            
   2382000   3.1775936      0.7792603      1            
   2383000   24.307579      5.9644027      2            
   2384000   45.352235      11.129104      3            
   2385000   29.595863      7.2615639      3            
   2386000   33.491455      8.2182047      2            
   2387000   18.978161      4.6558647      3            
   2388000   16.367478      4.0163212      1            
   2389000   31.493666      7.7274215      3            
   2390000   12.623085      3.0973725      1            
   2391000   2.7717298      0.67965249     1            
   2392000   13.560088      3.3266812      2            
   2393000   13.61141       3.3385532      3            
   2394000   0.34737549     0.084668093    1            
   2395000   26.038927      6.3893428      2            
   2396000   3.8150627      0.93479486     2            
   2397000   10.612957      2.6089546      2            
   2398000   8.6136912      2.1133871      1            
   2399000   66.707196      16.360853      4            
   2400000   8.2051401      2.013119       1            
   2401000   8.0800487      1.9819122      2            
   2402000   31.475413      7.7215627      2            
   2403000   7.1641799      1.7576477      1            
   2404000   2.9204194      0.71572091     2            
   2405000   26.707541      6.5530499      3            
   2406000   43.493017      10.67285       2            
   2407000   13.255552      3.2525912      1            
   2408000   2.0269121      0.49685908     1            
   2409000   2.130543       0.52229247     1            
   2410000   46.418316      11.390279      3            
   2411000   41.027519      10.066657      2            
   2412000   52.002235      12.761804      1            
   2413000   0.35371193     0.086221973    1            
   2414000   30.169499      7.402003       3            
   2415000   62.173575      15.256533      3            
   2416000   25.739126      6.3132773      4            
   2417000   62.053651      15.227574      3            
   2418000   36.101078      8.8593419      1            
   2419000   42.914889      10.504339      4            
   2420000   15.242573      3.7402461      1            
   2421000   19.548213      4.7963563      2            
   2422000   1.0898451      0.26688312     1            
   2423000   40.799138      9.964224       2            
   2424000   22.138875      5.4321434      2            
   2425000   46.477244      11.40431       4            
   2426000   20.114966      4.936029       1            
   2427000   5.1369976      1.2601354      1            
   2428000   9.3607294      2.2967261      1            
   2429000   7.0897551      1.7389397      2            
   2430000   9.3151405      2.2844427      3            
   2431000   4.9067109      1.2036202      1            
   2432000   0.38105966     0.092933634    1            
   2433000   7.891157       1.9360615      1            
   2434000   8.6613672      2.1250874      1            
   2435000   22.747208      5.5803982      3            
   2436000   7.8132843      1.9169507      1            
   2437000   2.435846       0.59721966     1            
   2438000   29.879475      7.3312503      3            
   2439000   40.489552      9.9350509      5            
   2440000   7.5241822      1.8459993      1            
   2441000   34.809088      8.5409132      3            
   2442000   9.3760242      2.2999212      2            
   2443000   31.533449      7.7383536      1            
   2444000   14.680849      3.6023886      1            
   2445000   3.7194636      0.91224639     1            
   2446000   14.222504      3.4899026      1            
   2447000   15.870418      3.8935055      3            
   2448000   7.2678975      1.7825115      2            
   2449000   9.6182322      2.3594071      2            
   2450000   3.7121853      0.91045891     1            
   2451000   0.74768387     0.18290991     1            
   2452000   24.847386      6.0956604      4            
   2453000   16.984516      4.1654691      4            
   2454000   61.161477      15.007785      5            
   2455000   36.985713      9.0759295      2            
   2456000   33.029305      8.104335       4            
   2457000   55.932734      13.725837      2            
   2458000   62.408566      15.314014      3            
   2459000   36.681697      9.0008407      4            
   2460000   81.858957      20.087897      3            
   2461000   114.3081       28.051322      4            
   2462000   8.51788        2.0898727      1            
   2463000   18.1037        4.440649       3            
   2464000   8.0947183      1.9854853      2            
   2465000   6.4664543      1.5858446      2            
   2466000   1.1054942      0.2707238      1            
   2467000   8.624209       2.1159682      1            
   2468000   49.91942       12.249164      3            
   2469000   18.031003      4.4233846      3            
   2470000   49.386864      12.117749      5            
   2471000   7.5248318      1.8455704      2            
   2472000   9.1634752      2.2483153      1            
   2473000   33.243684      8.1569057      3            
   2474000   0.27674694     0.067333755    1            
   2475000   14.9966        3.6791748      2            
   2476000   3.1074466      0.76204412     1            
   2477000   42.599931      10.453694      2            
   2478000   32.486181      7.9711262      3            
   2479000   13.666812      3.3535227      1            
   2480000   34.317937      8.4205336      3            
   2481000   17.708475      4.344876       2            
   2482000   53.262735      13.070551      2            
   2483000   16.71496       4.1009628      2            
   2484000   8.7486742      2.1461549      2            
   2485000   19.918906      4.8867507      3            
   2486000   28.341828      6.9531875      4            
   2487000   26.607757      6.5298901      2            
   2488000   58.072108      14.251182      5            
   2489000   18.352227      4.5034173      1            
   2490000   29.116438      7.1411899      4            
   2491000   55.78808       13.689233      4            
   2492000   45.666117      11.205483      3            
   2493000   28.978184      7.110469       3            
   2494000   7.0989489      1.7418089      2            
   2495000   10.814493      2.6529192      2            
   2496000   34.492495      8.463261       3            
   2497000   16.142181      3.9610286      1            
   2498000   14.273451      3.5024041      1            
   2499000   81.673498      20.043042      6            
   2500000   6.7443471      1.6546114      1            
   2501000   32.939607      8.0829199      2            
   2502000   9.3821828      2.3019889      1            
Loop time of 302.885 on 8 procs for 2500000 steps with 3 atoms

Performance: 713.143 ns/day, 0.034 hours/ns, 8253.968 timesteps/s, 24.762 katom-step/s
798.2% CPU use with 1 MPI tasks x 8 OpenMP threads

MPI task timing breakdown:
Section |  min time  |  avg time  |  max time  |%varavg| %total
---------------------------------------------------------------
Pair    | 5.9746     | 5.9746     | 5.9746     |   0.0 |  1.97
Bond    | 11.765     | 11.765     | 11.765     |   0.0 |  3.88
Kspace  | 226.59     | 226.59     | 226.59     |   0.0 | 74.81
Neigh   | 0.17035    | 0.17035    | 0.17035    |   0.0 |  0.06
Comm    | 0.83915    | 0.83915    | 0.83915    |   0.0 |  0.28
Output  | 0.043744   | 0.043744   | 0.043744   |   0.0 |  0.01
Modify  | 56.87      | 56.87      | 56.87      |   0.0 | 18.78
Other   |            | 0.6321     |            |       |  0.21

Nlocal:              3 ave           3 max           3 min
Histogram: 1 0 0 0 0 0 0 0 0 0
Nghost:              9 ave           9 max           9 min
Histogram: 1 0 0 0 0 0 0 0 0 0
Neighs:              3 ave           3 max           3 min
Histogram: 1 0 0 0 0 0 0 0 0 0

Total # of neighbors = 3
Ave neighs/atom = 1
Ave special neighs/atom = 2
Neighbor list builds = 266994
Dangerous builds = 0
Total wall time: 0:05:03
