LAMMPS data file via write_data, version 27 Jun 2024, timestep = 0, units = real

75 atoms
2 atom types
50 bonds
1 bond types
25 angles
1 angle types

-12.5 12.5 xlo xhi
-12.5 12.5 ylo yhi
-12.5 12.5 zlo zhi

Atom Type Labels

1 O
2 H

Bond Type Labels

1 O-H

Angle Type Labels

1 H-O-H

Masses

1 15.9994
2 1.00784

Pair Coeffs # lj/cut/coul/long

1 0.15535 3.166
2 0 1

Bond Coeffs # harmonic

1 0 1

Angle Coeffs # harmonic

1 0 109.47

Atoms # full

7 3 2 0.4238 -6.889106528187353 -11.594096537017592 -10.026066677422353 0 0 0
8 3 1 -0.8476 -5.89772916737875 -11.687918769735635 -10.117545183772037 0 0 0
9 3 2 0.4238 -5.475439755186142 -10.781485486228597 -10.114215784326207 0 0 0
11 4 1 -0.8476 10.491917426630456 -7.6867980908472076 -12.244420335311098 0 0 1
15 5 2 0.4238 -9.964459728099534 0.8238707694521501 -12.47840391182744 0 0 1
42 14 2 0.4238 -5.527728611979611 4.115009785185813 -10.407720874645543 0 0 0
28 10 2 0.4238 11.054912962457582 -0.4134730155350934 -7.883231601957562 0 0 0
29 10 1 -0.8476 11.545173646151001 -0.7310496668031843 -7.071573094582813 0 0 0
30 10 2 0.4238 12.211231066352045 -0.039314254465179554 -6.792592159189907 0 0 0
1 1 2 0.4238 -5.4397342583766175 8.630890965916725 -5.927935287144693 0 0 0
2 1 1 -0.8476 -5.121861323547866 8.03712918171537 -6.6671265620697815 0 0 0
40 14 2 0.4238 -6.305834262788312 5.295155075019383 -9.59018223882262 0 0 0
41 14 1 -0.8476 -6.0866876548511275 4.939183832413747 -10.498620040032712 0 0 0
3 1 2 0.4238 -4.122778479108819 8.057136065629635 -6.704461860965378 0 0 0
4 2 2 0.4238 2.752890241383631 12.207939706572253 -10.364648670298585 0 0 0
5 2 1 -0.8476 2.8616678883670423 11.226979671963562 -10.52553631437752 0 0 0
6 2 2 0.4238 2.290444877473625 10.95062304021863 -11.298383009341311 0 0 0
22 8 2 0.4238 -3.032009422027455 6.147993030518858 -11.641247220040038 0 0 0
23 8 1 -0.8476 -2.7270746135213 6.15754195705805 -10.688921865676697 0 0 0
24 8 2 0.4238 -1.7812988493785187 6.479318039757929 -10.645000497728292 0 0 0
49 17 2 0.4238 9.938271299519084 11.20016993969152 -9.705463575996776 0 0 0
50 17 1 -0.8476 9.339117953746625 10.399536088088613 -9.704624578282857 0 0 0
51 17 2 0.4238 8.485282337173652 10.621714486487463 -10.175328550176417 0 0 0
61 21 2 0.4238 9.067030612887063 7.2364879266438376 -6.105347811389262 0 0 0
62 21 1 -0.8476 9.74926088012399 7.141909326269847 -6.830342122275306 0 0 0
63 21 2 0.4238 10.52101605785757 7.74961019612279 -6.643114110425087 0 0 0
66 22 2 0.4238 -11.791871560105806 -7.307418201642544 3.7403061106023023 0 0 0
52 18 2 0.4238 2.3531035293967197 -7.708705582109024 0.19169749013507553 0 0 0
53 18 1 -0.8476 2.5718695106274976 -8.683795671635714 0.2283139176364799 0 0 0
54 18 2 0.4238 2.9764751671387772 -8.9674809577985 -0.6410408149864091 0 0 0
16 6 2 0.4238 8.274785617104722 -12.241515926359874 3.339779939004953 0 0 0
18 6 2 0.4238 7.5588909134101225 -11.975397795599376 1.8964377606901366 0 0 0
55 19 2 0.4238 11.114713580259345 -4.352135111170912 -3.333654267153832 0 0 0
56 19 1 -0.8476 11.77613358928131 -4.166732695175271 -2.6069153072732134 0 0 0
67 23 2 0.4238 -4.632414406301871 -2.322393029337954 3.283017516050463 0 0 0
68 23 1 -0.8476 -3.938930820235803 -3.0168337932291274 3.0910994572253725 0 0 0
69 23 2 0.4238 -3.379512338013551 -2.723860589851289 2.315742511134941 0 0 0
46 16 2 0.4238 5.145681096780013 3.840773502705943 -2.3540701714237056 0 0 0
57 19 2 0.4238 12.267905770429925 -3.3204701080626293 -2.8117578944023363 0 0 0
31 11 2 0.4238 -8.617041371746796 5.441350258765911 0.011103086840160592 0 0 0
32 11 1 -0.8476 -7.819181342034965 4.847653712838106 -0.09350945706175665 0 0 0
33 11 2 0.4238 -7.1244600337595525 5.316058101541533 -0.6393302724137071 0 0 0
17 6 1 -0.8476 7.864074711313348 12.322035128501907 2.539262062782464 0 -1 0
19 7 2 0.4238 10.654367023345019 10.676777888342563 0.5777553609248987 0 0 0
20 7 1 -0.8476 10.4964751405898 10.77079028092568 1.56072627778908 0 0 0
21 7 2 0.4238 11.337525796382408 10.552740882444876 2.055750503674016 0 0 0
47 16 1 -0.8476 5.804037322932215 4.580576053668568 -2.215292417169561 0 0 0
48 16 2 0.4238 5.45943418861029 5.206538520158075 -1.5157351283347733 0 0 0
70 24 2 0.4238 7.676187010832239 7.030897929744584 0.67829673576835 0 0 0
71 24 1 -0.8476 8.654520648456467 6.864466405308595 0.5551551864567612 0 0 0
72 24 2 0.4238 9.137646832679174 7.738582168987423 0.505441488077073 0 0 0
37 13 2 0.4238 -6.177193047609078 -8.043292888148383 11.009055783748094 0 0 0
38 13 1 -0.8476 -5.447882156473932 -8.525815388038968 10.52400149691929 0 0 0
39 13 2 0.4238 -4.784780645915925 -8.878162655929785 11.184386626601633 0 0 0
64 22 2 0.4238 -12.080571335651898 -8.017736975526844 5.182062126392471 0 0 0
65 22 1 -0.8476 -12.087126119065159 -7.1512769506977065 4.682858700735659 0 0 0
10 4 2 0.4238 11.13150380323925 -8.401286512387772 12.47196802469346 0 0 0
12 4 2 0.4238 10.067340505416288 -7.279430445181127 11.94703358113103 0 0 0
34 12 2 0.4238 6.17282636094065 -4.948148440575496 11.092298580239662 0 0 0
35 12 1 -0.8476 6.8620727287693715 -4.4358857918536625 11.604671904251957 0 0 0
13 5 2 0.4238 -11.418336712827267 0.09128955436595637 12.39460314907029 0 0 0
14 5 1 -0.8476 -10.429790040436052 -0.05615258931124739 12.426794619557407 0 0 0
27 9 2 0.4238 -12.38411106950701 4.125654456813099 5.564152618920159 1 0 0
73 25 2 0.4238 -8.816030212608869 -0.8094093468419559 6.384045694770557 0 0 0
74 25 1 -0.8476 -7.878459553820406 -0.5219736991434321 6.579856849230916 0 0 0
75 25 2 0.4238 -7.7239632847757305 0.39095144348108346 6.202154166138403 0 0 0
43 15 2 0.4238 -2.455957432066076 0.8605570820653139 9.633397088797684 0 0 0
44 15 1 -0.8476 -1.4763606652459895 0.9674473695238697 9.803587102848628 0 0 0
45 15 2 0.4238 -1.1323227918951333 1.7525706430066335 9.288630680288495 0 0 0
25 9 2 0.4238 11.923464859284103 3.0641485269046753 6.5938685003067485 0 0 0
26 9 1 -0.8476 11.785457249633813 3.9093363954329923 6.077524267675868 0 0 0
36 12 2 0.4238 6.737348138722533 -3.4567975015039476 11.444077301796831 0 0 0
58 20 2 0.4238 -9.146960367756776 6.427959394914169 5.802172774607242 0 0 0
59 20 1 -0.8476 -8.476348471642925 6.581139871768222 6.527993293951625 0 0 0
60 20 2 0.4238 -7.744459776022962 5.903781324626713 6.45393206362123 0 0 0

Velocities

7 0 0 0
8 0 0 0
9 0 0 0
11 0 0 0
15 0 0 0
42 0 0 0
28 0 0 0
29 0 0 0
30 0 0 0
1 0 0 0
2 0 0 0
40 0 0 0
41 0 0 0
3 0 0 0
4 0 0 0
5 0 0 0
6 0 0 0
22 0 0 0
23 0 0 0
24 0 0 0
49 0 0 0
50 0 0 0
51 0 0 0
61 0 0 0
62 0 0 0
63 0 0 0
66 0 0 0
52 0 0 0
53 0 0 0
54 0 0 0
16 0 0 0
18 0 0 0
55 0 0 0
56 0 0 0
67 0 0 0
68 0 0 0
69 0 0 0
46 0 0 0
57 0 0 0
31 0 0 0
32 0 0 0
33 0 0 0
17 0 0 0
19 0 0 0
20 0 0 0
21 0 0 0
47 0 0 0
48 0 0 0
70 0 0 0
71 0 0 0
72 0 0 0
37 0 0 0
38 0 0 0
39 0 0 0
64 0 0 0
65 0 0 0
10 0 0 0
12 0 0 0
34 0 0 0
35 0 0 0
13 0 0 0
14 0 0 0
27 0 0 0
73 0 0 0
74 0 0 0
75 0 0 0
43 0 0 0
44 0 0 0
45 0 0 0
25 0 0 0
26 0 0 0
36 0 0 0
58 0 0 0
59 0 0 0
60 0 0 0

Bonds

1 1 7 8
2 1 8 9
3 1 11 12
4 1 28 29
5 1 29 30
6 1 1 2
7 1 2 3
8 1 40 41
9 1 41 42
10 1 4 5
11 1 5 6
12 1 22 23
13 1 23 24
14 1 49 50
15 1 50 51
16 1 61 62
17 1 62 63
18 1 52 53
19 1 53 54
20 1 16 17
21 1 55 56
22 1 56 57
23 1 67 68
24 1 68 69
25 1 46 47
26 1 31 32
27 1 32 33
28 1 17 18
29 1 19 20
30 1 20 21
31 1 47 48
32 1 70 71
33 1 71 72
34 1 37 38
35 1 38 39
36 1 64 65
37 1 65 66
38 1 10 11
39 1 34 35
40 1 35 36
41 1 13 14
42 1 14 15
43 1 73 74
44 1 74 75
45 1 43 44
46 1 44 45
47 1 25 26
48 1 26 27
49 1 58 59
50 1 59 60

Angles

1 1 7 8 9
2 1 10 11 12
3 1 28 29 30
4 1 1 2 3
5 1 40 41 42
6 1 4 5 6
7 1 22 23 24
8 1 49 50 51
9 1 61 62 63
10 1 52 53 54
11 1 55 56 57
12 1 67 68 69
13 1 31 32 33
14 1 16 17 18
15 1 19 20 21
16 1 46 47 48
17 1 70 71 72
18 1 37 38 39
19 1 64 65 66
20 1 34 35 36
21 1 13 14 15
22 1 73 74 75
23 1 43 44 45
24 1 25 26 27
25 1 58 59 60
