LAMMPS (27 Jun 2024)
  using 8 OpenMP thread(s) per MPI task
package omp 0
using multi-threaded neighbor list subroutines
# LAMMPS input script by Simon Gravelle
# For LAMMPS tutorials, see https://lammpstutorials.github.io
# Last tested using the 27Jun2024 LAMMPS version

variable Nstep equal 2500000
variable mu_K equal -4000
variable mu_kcal_mol equal ${mu_K}*0.0019872041
variable mu_kcal_mol equal -4000*0.0019872041
print "mu equal ${mu_kcal_mol}"
mu equal -7.9488164
variable tfac equal 5.0/3.0
variable Nattempt equal 100

units real
boundary p p p
atom_style full
pair_style lj/cut/coul/long 12
kspace_style ewald 1.0e-5
bond_style harmonic
angle_style harmonic
pair_modify mix geometric
special_bonds lj 0.0 0.0 0.0 coul 0.0 0.0 0.0 angle yes

read_data box.data
Reading data file ...
  orthogonal box = (-12.5 -12.5 -12.5) to (12.5 12.5 12.5)
  1 by 1 by 1 MPI processor grid
  reading atom labelmap ...
  reading bond labelmap ...
  reading angle labelmap ...
  reading atoms ...
  150 atoms
  reading velocities ...
  150 velocities
  scanning bonds ...
  1 = max bonds/atom
  scanning angles ...
  1 = max angles/atom
  orthogonal box = (-12.5 -12.5 -12.5) to (12.5 12.5 12.5)
  1 by 1 by 1 MPI processor grid
  reading bonds ...
  100 bonds
  reading angles ...
  50 angles
Finding 1-2 1-3 1-4 neighbors ...
  special bond factors lj:    0        0        0       
  special bond factors coul:  0        0        0       
     2 = max # of 1-2 neighbors
     1 = max # of 1-3 neighbors
     1 = max # of 1-4 neighbors
  100 = # of 1-3 neighbors before angle trim
  100 = # of 1-3 neighbors after angle trim
     2 = max # of special neighbors
  special bonds CPU = 0.000 seconds
  read_data CPU = 0.016 seconds
labelmap atom 1 O 2 C
labelmap bond 1 C-O
labelmap angle 1 O-C-O

group CO2 type C O
150 atoms in group CO2
include parm.lmp
# LAMMPS parameter file for H2O SPCE water model
# For conversion from K to kcal / mol, multiply
# by Boltzmann = 0.0019872041 kcal / (mol * K)

mass O 15.9994
mass C 12.0110

pair_coeff O O 0.164858 3.011
pair_coeff C C 0.05894 2.789

bond_coeff C-O 0.0 1.18 # rigid

angle_coeff O-C-O 0.0 180.0 # rigid

molecule CO2mol CO2.mol
Read molecule template CO2mol:
# LAMMPS molecule file for carbondioxide
  1 molecules
  0 fragments
  3 atoms with max type 2
  2 bonds with max type 1
  1 angles with max type 1
  0 dihedrals with max type 0
  0 impropers with max type 0

fix mynvt CO2 rigid/nvt/small molecule temp 300 300 100 mol CO2mol
  create bodies CPU = 0.000 seconds
  50 rigid bodies with 150 atoms
  1.18 = max distance from body owner to body atom
thermo 1000

run 2000

CITE-CITE-CITE-CITE-CITE-CITE-CITE-CITE-CITE-CITE-CITE-CITE-CITE

Your simulation uses code contributions which should be cited:

- Type Label Framework: https://doi.org/10.1021/acs.jpcb.3c08419

@Article{Gissinger24,
 author = {Jacob R. Gissinger, Ilia Nikiforov, Yaser Afshar, Brendon Waters, Moon-ki Choi, Daniel S. Karls, Alexander Stukowski, Wonpil Im, Hendrik Heinz, Axel Kohlmeyer, and Ellad B. Tadmor},
 title = {Type Label Framework for Bonded Force Fields in LAMMPS},
 journal = {J. Phys. Chem. B},
 year =    2024,
 volume =  128,
 number =  13,
 pages =   {3282–-3297}
}

CITE-CITE-CITE-CITE-CITE-CITE-CITE-CITE-CITE-CITE-CITE-CITE-CITE

Ewald initialization ...
  using 12-bit tables for long-range coulomb (src/kspace.cpp:342)
  G vector (1/distance) = 0.21801154
  estimated absolute RMS force accuracy = 0.0034006373
  estimated relative force accuracy = 1.0240918e-05
  KSpace vectors: actual max1d max3d = 257 5 665
                  kxmax kymax kzmax  = 5 5 5
Generated 1 of 1 mixed pair_coeff terms from geometric mixing rule
Last active /omp style is kspace_style ewald/omp
Neighbor list info ...
  update: every = 1 steps, delay = 0 steps, check = yes
  max neighbors/atom: 2000, page size: 100000
  master list distance cutoff = 14
  ghost atom cutoff = 14
  binsize = 7, bins = 4 4 4
  1 neighbor lists, perpetual/occasional/extra = 1 0 0
  (1) pair lj/cut/coul/long/omp, perpetual
      attributes: half, newton on, omp
      pair build: half/bin/newton/omp
      stencil: half/bin/3d
      bin: standard
Per MPI rank memory allocation (min/avg/max) = 26.82 | 26.82 | 26.82 Mbytes
   Step          Temp          E_pair         E_mol          TotEng         Press     
         0   0             -24.115729      0             -24.115729     -139.61173    
      1000   270.80748     -28.024535      0              38.437043      69.359993    
      2000   302.41636     -29.459348      0              44.759684      89.86941     
Loop time of 0.343017 on 8 procs for 2000 steps with 150 atoms

Performance: 503.765 ns/day, 0.048 hours/ns, 5830.613 timesteps/s, 874.592 katom-step/s
792.3% CPU use with 1 MPI tasks x 8 OpenMP threads

MPI task timing breakdown:
Section |  min time  |  avg time  |  max time  |%varavg| %total
---------------------------------------------------------------
Pair    | 0.028587   | 0.028587   | 0.028587   |   0.0 |  8.33
Bond    | 0.0092987  | 0.0092987  | 0.0092987  |   0.0 |  2.71
Kspace  | 0.16614    | 0.16614    | 0.16614    |   0.0 | 48.44
Neigh   | 0.001553   | 0.001553   | 0.001553   |   0.0 |  0.45
Comm    | 0.013989   | 0.013989   | 0.013989   |   0.0 |  4.08
Output  | 2.1267e-05 | 2.1267e-05 | 2.1267e-05 |   0.0 |  0.01
Modify  | 0.12227    | 0.12227    | 0.12227    |   0.0 | 35.65
Other   |            | 0.001155   |            |       |  0.34

Nlocal:            150 ave         150 max         150 min
Histogram: 1 0 0 0 0 0 0 0 0 0
Nghost:           1372 ave        1372 max        1372 min
Histogram: 1 0 0 0 0 0 0 0 0 0
Neighs:           8049 ave        8049 max        8049 min
Histogram: 1 0 0 0 0 0 0 0 0 0

Total # of neighbors = 8049
Ave neighs/atom = 53.66
Ave special neighs/atom = 2
Neighbor list builds = 20
Dangerous builds = 0

fix fgcmc CO2 gcmc 100 ${Nattempt} 0 0 25899 300 ${mu_kcal_mol} 0.1     mol CO2mol tfac_insert ${tfac} full_energy rigid mynvt
fix fgcmc CO2 gcmc 100 100 0 0 25899 300 ${mu_kcal_mol} 0.1     mol CO2mol tfac_insert ${tfac} full_energy rigid mynvt
fix fgcmc CO2 gcmc 100 100 0 0 25899 300 -7.9488164 0.1     mol CO2mol tfac_insert ${tfac} full_energy rigid mynvt
fix fgcmc CO2 gcmc 100 100 0 0 25899 300 -7.9488164 0.1     mol CO2mol tfac_insert 1.66666666666667 full_energy rigid mynvt

variable carbon atom "type==2"
group carbon dynamic all var carbon
dynamic group carbon defined
variable nC equal count(carbon)
fix myat1 all ave/time 10 10 1000 v_nC file number_CO2.dat
variable density equal v_nC*(2*15.9994+12.011)/vol/6.022e23*(1e8)^3
fix myat2 all ave/time 10 10 1000 v_density file density_CO2.dat
compute press all pressure thermo_temp
fix myat3 all ave/time 10 100 1000 c_press file pressure_CO2.dat
thermo_style custom step temp etotal v_nC

run ${Nstep}
run 2500000
Ewald initialization ...
  using 12-bit tables for long-range coulomb (src/kspace.cpp:342)
  G vector (1/distance) = 0.21801154
  estimated absolute RMS force accuracy = 0.0034006373
  estimated relative force accuracy = 1.0240918e-05
  KSpace vectors: actual max1d max3d = 257 5 665
                  kxmax kymax kzmax  = 5 5 5
Generated 1 of 1 mixed pair_coeff terms from geometric mixing rule
Last active /omp style is kspace_style ewald/omp
0 atoms in group FixGCMC:gcmc_exclusion_group:fgcmc
0 atoms in group FixGCMC:rotation_gas_atoms:fgcmc
WARNING: Neighbor exclusions used with KSpace solver may give inconsistent Coulombic energies (src/neighbor.cpp:658)
Per MPI rank memory allocation (min/avg/max) = 26.82 | 26.82 | 26.82 Mbytes
   Step          Temp          TotEng          v_nC     
      2000   302.41636      44.759684      50           
      3000   97.000779      23.650038      9            
      4000   22.593344      5.4786148      4            
      5000   117.02847      24.794233      12           
      6000   45.814171      11.091317      6            
      7000   38.347787      9.399419       4            
      8000   118.40425      26.742179      11           
      9000   69.498815      17.020222      6            
     10000   97.612085      22.699637      11           
     11000   39.133261      9.6056826      4            
     12000   65.628684      15.67232       7            
     13000   68.965893      15.110967      8            
     14000   102.62306      23.948403      12           
     15000   141.31169      31.943211      14           
     16000   71.994886      16.754806      9            
     17000   130.17108      30.135172      10           
     18000   67.037725      16.339679      7            
     19000   87.177194      21.119508      9            
     20000   20.819389      4.2848102      4            
     21000   31.726699      7.2975814      5            
     22000   60.67516       14.4582        7            
     23000   150.32911      35.816134      11           
     24000   67.813616      16.481818      5            
     25000   54.045706      13.161522      6            
     26000   50.595376      12.404234      5            
     27000   31.364439      6.4104192      7            
     28000   34.644825      6.9180061      8            
     29000   74.204657      16.15316       8            
     30000   41.952973      10.287595      3            
     31000   26.43876       5.7381297      5            
     32000   86.72425       20.972744      9            
     33000   32.741892      7.4489638      4            
     34000   30.126877      6.5627699      5            
     35000   98.026508      20.16433       15           
     36000   66.400321      15.983131      5            
     37000   83.116278      17.241012      9            
     38000   83.49087       20.173703      7            
     39000   42.203612      10.167427      4            
     40000   92.865753      21.467026      9            
     41000   80.392081      18.854325      7            
     42000   49.435244      11.346473      9            
     43000   143.02686      31.513788      16           
     44000   11.768844      2.888164       1            
     45000   85.317201      19.95823       10           
     46000   121.57676      25.888046      16           
     47000   69.042957      16.257399      8            
     48000   155.35496      35.949429      12           
     49000   81.4712        18.846899      9            
     50000   66.485155      16.042217      8            
     51000   118.04288      26.61372       12           
     52000   74.756565      16.993628      11           
     53000   201.89741      44.886687      17           
     54000   47.116332      11.559364      3            
     55000   71.056236      17.296665      6            
     56000   91.431359      22.184817      7            
     57000   79.22154       19.399001      7            
     58000   24.63221       6.0419475      4            
     59000   32.892489      8.0594009      4            
     60000   109.10387      26.23962       11           
     61000   57.489121      13.455191      8            
     62000   99.285472      24.175138      8            
     63000   105.68776      25.695149      9            
     64000   122.7586       29.059751      10           
     65000   23.995342      5.8154873      5            
     66000   84.76038       20.71455       6            
     67000   132.71875      31.291233      14           
     68000   63.122316      14.194034      8            
     69000   52.60958       12.817774      5            
     70000   70.248103      16.89303       5            
     71000   74.660497      16.995874      7            
     72000   37.576841      9.1164562      5            
     73000   69.213996      15.765849      8            
     74000   121.78664      28.084283      12           
     75000   41.372357      9.9132563      7            
     76000   143.55775      32.903708      12           
     77000   102.23914      23.611201      11           
     78000   109.76178      23.294987      14           
     79000   79.269478      19.016288      7            
     80000   104.2325       24.920295      11           
     81000   138.37122      31.650057      14           
     82000   95.055799      20.859516      12           
     83000   97.389191      23.743621      7            
     84000   74.771885      17.494756      7            
     85000   47.153208      11.415828      7            
     86000   108.49323      25.613943      13           
     87000   50.724022      11.171996      5            
     88000   128.28666      27.757686      15           
     89000   60.835664      13.67054       7            
     90000   65.374906      15.650878      7            
     91000   50.951562      12.337399      7            
     92000   22.843139      5.6054702      2            
     93000   79.441313      17.619159      11           
     94000   165.28422      36.040236      19           
     95000   39.365463      9.6342599      2            
     96000   108.45557      25.810139      13           
     97000   45.471047      11.107395      6            
     98000   67.410125      16.404312      6            
     99000   75.768266      17.672054      8            
    100000   105.55438      23.139699      11           
    101000   113.74042      26.686935      13           
    102000   148.27684      33.265228      12           
    103000   53.47809       13.248357      7            
    104000   144.4333       32.698929      13           
    105000   76.535425      18.658818      8            
    106000   54.565196      13.24496       4            
    107000   62.042356      14.486376      6            
    108000   65.759485      15.511737      9            
    109000   33.999344      8.3410425      3            
    110000   121.5629       29.654772      8            
    111000   75.072113      18.346444      8            
    112000   83.634949      19.87743       7            
    113000   64.599791      15.766484      7            
    114000   104.13409      23.832523      12           
    115000   116.09079      28.318957      8            
    116000   126.27898      27.775671      19           
    117000   133.76696      32.037643      9            
    118000   92.334378      22.54419       6            
    119000   108.84844      25.193707      9            
    120000   63.681865      14.323395      8            
    121000   91.863717      21.36745       11           
    122000   53.709585      12.354022      7            
    123000   83.972531      20.078816      6            
    124000   82.841052      20.035199      9            
    125000   105.29888      25.064177      10           
    126000   118.44275      27.46881       14           
    127000   73.659692      17.46491       8            
    128000   135.65121      31.199732      12           
    129000   63.743533      14.580432      10           
    130000   69.481463      16.986753      6            
    131000   132.76688      26.530045      20           
    132000   70.230437      17.072884      8            
    133000   49.52233       10.557545      6            
    134000   91.736922      21.57542       9            
    135000   73.802752      17.408534      8            
    136000   65.238386      15.643791      7            
    137000   127.61296      30.070982      12           
    138000   72.476793      17.760974      6            
    139000   83.660975      18.895914      9            
    140000   169.36153      40.364228      11           
    141000   56.66185       13.465671      9            
    142000   123.86814      29.164792      13           
    143000   87.250968      20.494246      10           
    144000   81.608809      19.696478      6            
    145000   60.02693       14.722487      4            
    146000   61.93235       14.809931      5            
    147000   49.003035      11.975994      6            
    148000   130.26124      29.853128      14           
    149000   69.273007      16.562413      8            
    150000   138.20365      30.827112      13           
    151000   48.360842      11.753685      6            
    152000   100.09929      22.65051       12           
    153000   33.724484      7.9496293      7            
    154000   120.43903      27.357376      9            
    155000   56.848096      13.938044      5            
    156000   46.298792      9.8950684      7            
    157000   41.569869      10.178132      4            
    158000   73.425034      17.565971      8            
    159000   67.396276      16.14227       7            
    160000   22.248899      5.4489606      5            
    161000   51.81736       12.641989      7            
    162000   24.131161      5.4548029      7            
    163000   89.927908      20.950869      9            
    164000   71.396569      15.815021      9            
    165000   37.867534      8.7532333      5            
    166000   85.67252       21.009346      5            
    167000   103.73804      23.491978      11           
    168000   87.025907      20.922132      7            
    169000   105.31271      23.815167      13           
    170000   138.25327      30.194029      17           
    171000   119.77638      28.006689      11           
    172000   75.765038      16.754327      10           
    173000   64.185469      15.015266      5            
    174000   93.347029      22.330963      8            
    175000   125.0233       29.513097      12           
    176000   132.29688      31.049445      13           
    177000   84.015483      19.491073      11           
    178000   92.389446      22.231934      10           
    179000   51.463502      11.604169      6            
    180000   117.36991      27.743358      10           
    181000   62.490512      12.933846      9            
    182000   56.387968      13.41025       6            
    183000   53.434033      12.481401      7            
    184000   73.468759      17.646201      6            
    185000   68.840834      15.052545      9            
    186000   113.89857      27.440179      9            
    187000   75.185157      18.090742      8            
    188000   35.944791      8.7966465      5            
    189000   44.478597      10.891669      3            
    190000   111.60688      26.93909       8            
    191000   73.144596      16.789672      8            
    192000   59.463304      14.428333      6            
    193000   90.570485      21.349137      11           
    194000   81.150904      19.607886      8            
    195000   137.25566      30.688437      14           
    196000   165.2192       35.725468      15           
    197000   22.297713      4.7918058      5            
    198000   83.533602      19.407291      8            
    199000   39.464792      9.6764246      3            
    200000   93.497339      21.405175      10           
    201000   64.496994      13.798785      9            
    202000   89.944604      20.339767      12           
    203000   68.015383      15.86032       9            
    204000   152.00331      32.517062      17           
    205000   81.663814      19.015679      10           
    206000   76.929623      18.06032       9            
    207000   85.679456      20.549007      7            
    208000   13.760994      3.3774737      2            
    209000   66.736593      13.39955       7            
    210000   79.070221      18.569904      8            
    211000   70.344707      16.496762      9            
    212000   102.62955      25.036626      8            
    213000   91.141071      21.967586      9            
    214000   32.594827      7.9775256      6            
    215000   110.94751      26.55219       10           
    216000   37.659374      9.2178052      6            
    217000   20.323938      4.9080416      6            
    218000   49.851442      11.587965      7            
    219000   49.834312      10.941478      8            
    220000   107.78002      24.917864      10           
    221000   66.39565       16.077743      8            
    222000   50.932898      11.546911      7            
    223000   76.63581       17.715825      9            
    224000   73.93507       17.587425      9            
    225000   128.18385      29.010981      13           
    226000   64.399261      15.669049      5            
    227000   84.265218      20.491794      8            
    228000   84.036901      20.231714      10           
    229000   53.391612      13.074779      6            
    230000   127.43221      30.195368      10           
    231000   80.015087      19.343697      7            
    232000   41.935742      8.9553158      5            
    233000   98.910716      23.275657      7            
    234000   97.73602       20.882076      11           
    235000   141.46634      33.427149      12           
    236000   156.25277      37.895129      11           
    237000   137.1284       32.169326      13           
    238000   66.699768      14.519838      7            
    239000   93.984535      22.155178      9            
    240000   71.779311      16.975596      8            
    241000   82.309221      19.973475      9            
    242000   90.992809      20.802562      12           
    243000   134.48743      31.60416       10           
    244000   83.988669      19.952387      9            
    245000   59.734485      14.282371      8            
    246000   72.01922       15.344286      9            
    247000   99.048238      21.833645      12           
    248000   121.27611      27.043491      12           
    249000   70.386349      16.596198      8            
    250000   63.491808      14.197678      8            
    251000   111.29946      27.141137      9            
    252000   129.04071      30.496324      11           
    253000   65.451892      15.93128       7            
    254000   128.87027      25.734275      16           
    255000   88.916568      21.11201       9            
    256000   181.5529       41.154961      16           
    257000   63.501493      15.121102      6            
    258000   113.54013      23.962071      10           
    259000   69.531532      17.043608      7            
    260000   133.07747      31.661622      11           
    261000   46.673667      9.9654737      5            
    262000   82.349573      17.170379      8            
    263000   92.793616      19.570154      9            
    264000   93.615361      21.239874      11           
    265000   107.40152      26.241989      8            
    266000   98.734616      23.158725      10           
    267000   20.978686      5.1492389      2            
    268000   95.003401      21.613966      10           
    269000   99.032526      23.631425      11           
    270000   78.669811      18.689634      7            
    271000   57.553329      13.260995      5            
    272000   170.75978      37.791967      17           
    273000   50.218723      11.81965       6            
    274000   110.33432      25.190893      9            
    275000   72.650199      17.805831      4            
    276000   10.35754       2.5411873      2            
    277000   53.929465      11.19615       8            
    278000   87.96051       19.945078      9            
    279000   114.45601      27.390455      9            
    280000   81.730027      18.708123      10           
    281000   63.883249      13.447144      5            
    282000   112.75927      25.708394      10           
    283000   88.122683      20.679068      9            
    284000   111.01985      25.047547      13           
    285000   20.815281      5.0631678      4            
    286000   65.171544      15.825993      6            
    287000   88.343894      21.622062      8            
    288000   87.034234      18.62624       12           
    289000   66.412109      16.230855      5            
    290000   136.57675      30.663136      15           
    291000   143.49302      31.157188      16           
    292000   100.19851      23.568325      10           
    293000   71.927153      16.127263      8            
    294000   100.00049      22.906169      8            
    295000   123.67737      28.694997      13           
    296000   21.995291      5.3917106      3            
    297000   59.249073      14.282003      5            
    298000   48.032563      11.507066      6            
    299000   76.522444      16.918958      10           
    300000   52.682406      12.889238      4            
    301000   93.016301      21.535173      11           
    302000   37.661352      9.2421399      2            
    303000   82.781669      20.210049      10           
    304000   125.61949      29.29469       16           
    305000   109.46463      25.40867       12           
    306000   56.622708      13.866581      7            
    307000   77.569879      18.16798       8            
    308000   40.554005      9.9375037      7            
    309000   84.960666      19.174521      11           
    310000   26.623115      4.6599834      5            
    311000   133.91336      30.772162      16           
    312000   65.021053      15.68589       6            
    313000   131.65897      30.074813      11           
    314000   32.010597      7.7889563      7            
    315000   46.31095       10.264542      8            
    316000   86.029844      18.454869      11           
    317000   91.189555      20.835261      9            
    318000   102.08065      24.116132      10           
    319000   77.342413      18.10916       7            
    320000   84.463918      19.922226      8            
    321000   69.202152      16.878312      6            
    322000   35.398064      8.6591124      3            
    323000   120.58072      28.728811      10           
    324000   49.402024      11.9149        6            
    325000   78.564903      19.194196      7            
    326000   77.559549      18.816693      4            
    327000   194.42288      43.1405        19           
    328000   86.329662      20.637502      7            
    329000   108.73206      23.993024      12           
    330000   86.048921      19.124797      11           
    331000   150.50945      34.014174      11           
    332000   72.313949      15.94475       7            
    333000   91.304932      21.308708      9            
    334000   122.90374      26.878131      9            
    335000   47.6662        11.25129       7            
    336000   58.736106      13.886156      10           
    337000   53.088837      12.404947      8            
    338000   91.774952      21.393972      8            
    339000   77.039552      17.710705      11           
    340000   61.955575      14.148471      6            
    341000   55.264559      13.093198      7            
    342000   90.247537      21.812475      13           
    343000   47.366508      11.363391      5            
    344000   77.557409      18.855475      6            
    345000   116.54063      28.241012      11           
    346000   88.026532      19.447334      10           
    347000   107.91461      25.010591      10           
    348000   74.44875       17.647684      8            
    349000   65.410462      15.509112      8            
    350000   99.550791      24.213163      8            
    351000   93.601874      21.63762       12           
    352000   71.057357      16.973414      7            
    353000   20.140816      4.7975904      4            
    354000   93.141431      22.217095      11           
    355000   108.27293      22.968058      10           
    356000   103.0254       24.341858      8            
    357000   76.876487      17.370776      9            
    358000   11.197787      2.7469101      2            
    359000   39.525859      9.6630714      7            
    360000   117.66772      26.814052      10           
    361000   79.294518      18.018122      10           
    362000   94.096363      21.949668      11           
    363000   75.438986      18.172598      10           
    364000   76.47638       18.075797      9            
    365000   68.424702      14.983261      12           
    366000   111.0477       24.558203      8            
    367000   80.707136      19.786491      5            
    368000   122.3869       29.820774      11           
    369000   105.39895      21.47871       12           
    370000   52.651482      12.534533      4            
    371000   53.978503      11.984306      7            
    372000   100.27921      24.118344      8            
    373000   53.783741      12.298253      7            
    374000   103.9472       25.498793      9            
    375000   114.81588      24.567641      14           
    376000   65.044364      14.275628      7            
    377000   85.784044      18.786333      7            
    378000   59.020612      14.740429      8            
    379000   117.98239      28.273647      12           
    380000   51.021632      12.267124      8            
    381000   36.219461      8.8544914      4            
    382000   114.41576      26.661076      11           
    383000   186.62513      41.021308      18           
    384000   104.33329      22.005956      14           
    385000   73.925359      18.014131      8            
    386000   40.5284        9.9256175      6            
    387000   104.37526      24.352465      9            
    388000   96.954749      23.551576      9            
    389000   68.679606      15.896254      9            
    390000   27.805496      6.7861792      5            
    391000   148.02707      35.13801       11           
    392000   59.214356      13.932361      10           
    393000   88.058208      20.407204      9            
    394000   61.218689      14.857959      6            
    395000   84.533431      19.933167      9            
    396000   95.901236      22.595597      10           
    397000   39.91545       9.2729392      5            
    398000   71.792853      16.397324      10           
    399000   57.071495      12.98293       9            
    400000   96.77919       22.431327      12           
    401000   77.093611      18.699452      8            
    402000   129.09483      31.565285      7            
    403000   54.492638      13.268797      4            
    404000   163.8922       36.554963      15           
    405000   84.213251      19.884333      10           
    406000   105.34999      25.109754      8            
    407000   80.374677      17.665945      12           
    408000   63.884556      15.199942      5            
    409000   73.573088      14.819985      11           
    410000   72.676042      16.829249      8            
    411000   61.421992      14.972145      3            
    412000   118.23919      26.433491      10           
    413000   120.36075      26.767189      13           
    414000   89.757215      21.467374      8            
    415000   79.778889      19.162947      9            
    416000   65.687746      15.97862       9            
    417000   24.377602      5.1396606      3            
    418000   141.48695      32.174159      15           
    419000   41.43312       10.155748      4            
    420000   20.351029      4.9845904      4            
    421000   90.059391      21.899191      11           
    422000   89.599645      21.032061      12           
    423000   51.946558      12.749463      5            
    424000   135.61706      30.081686      13           
    425000   130.83647      28.980687      15           
    426000   61.86199       15.137071      6            
    427000   41.678199      10.220684      3            
    428000   39.429093      8.8459655      4            
    429000   133.78349      36.662975      11           
    430000   69.92032       17.073173      5            
    431000   98.530821      22.177378      11           
    432000   90.627519      20.939102      11           
    433000   119.96844      28.49159       10           
    434000   74.168186      18.137108      7            
    435000   88.677784      21.291477      7            
    436000   97.753081      22.531363      7            
    437000   26.158554      6.4190834      3            
    438000   145.61232      34.963511      13           
    439000   85.741524      20.570803      6            
    440000   138.24261      31.613861      11           
    441000   74.111125      18.020557      7            
    442000   52.62163       11.493877      10           
    443000   128.44833      28.924794      12           
    444000   70.950528      17.145903      7            
    445000   48.474295      11.869669      7            
    446000   74.428269      16.676048      9            
    447000   14.249893      3.3822785      4            
    448000   182.64046      43.253373      15           
    449000   136.37525      30.051442      14           
    450000   69.483138      15.779273      8            
    451000   82.805809      18.694571      11           
    452000   44.920057      10.739154      8            
    453000   76.764365      18.53607       9            
    454000   112.37696      27.948432      9            
    455000   68.913418      16.473755      9            
    456000   66.620791      15.846816      9            
    457000   62.358092      13.849969      6            
    458000   122.58805      28.262457      12           
    459000   60.440691      14.729048      6            
    460000   52.103374      12.451849      6            
    461000   45.488735      10.540996      4            
    462000   80.777257      18.823447      9            
    463000   77.529173      18.094148      7            
    464000   64.437824      15.629834      8            
    465000   136.82139      32.358522      11           
    466000   58.398159      14.158232      8            
    467000   128.55019      31.13634       7            
    468000   61.784068      15.037536      6            
    469000   114.10427      27.481627      10           
    470000   63.059502      15.452819      6            
    471000   97.029939      23.727865      8            
    472000   91.668261      22.306289      7            
    473000   31.713272      7.4669394      5            
    474000   79.943651      17.76225       10           
    475000   200.25304      44.218371      17           
    476000   55.184462      13.374311      8            
    477000   61.126053      14.532868      7            
    478000   17.408407      4.252583       4            
    479000   78.599967      19.052648      7            
    480000   80.712649      17.821763      9            
    481000   100.16354      23.118036      11           
    482000   87.084347      21.050141      10           
    483000   109.30976      28.591446      10           
    484000   86.79512       20.894553      8            
    485000   140.83831      31.77909       12           
    486000   108.84164      24.441658      12           
    487000   92.286867      21.252895      8            
    488000   79.623808      18.62113       7            
    489000   75.480329      16.931389      9            
    490000   58.362383      13.191401      9            
    491000   10.444736      2.5412589      3            
    492000   62.861305      13.594408      7            
    493000   32.35657       7.8453176      5            
    494000   91.620513      21.720368      6            
    495000   94.654571      22.848511      11           
    496000   126.78921      29.184148      9            
    497000   48.341765      9.9636235      10           
    498000   89.420969      20.685125      10           
    499000   30.329193      5.54786        7            
    500000   53.909197      11.701381      7            
    501000   82.669087      20.007378      9            
    502000   49.606315      12.114521      6            
    503000   20.167975      4.844689       3            
    504000   72.538713      16.962621      12           
    505000   56.473825      13.809742      6            
    506000   87.093901      17.58649       16           
    507000   104.71828      25.189938      8            
    508000   80.831857      17.981169      11           
    509000   61.676247      14.300164      6            
    510000   96.900569      21.143457      13           
    511000   106.11383      23.907708      11           
    512000   76.160492      18.526089      6            
    513000   72.316792      16.886332      8            
    514000   23.896517      5.5637914      4            
    515000   21.82115       5.2627066      4            
    516000   101.00052      24.72803       5            
    517000   70.129363      16.625468      8            
    518000   151.80359      37.102341      9            
    519000   63.967593      13.235831      11           
    520000   56.814194      13.698729      7            
    521000   67.822273      16.512516      7            
    522000   143.49321      31.01587       16           
    523000   43.097979      10.018633      6            
    524000   40.170251      9.142962       5            
    525000   97.862285      23.405236      11           
    526000   49.144307      12.022203      7            
    527000   110.7893       26.767403      10           
    528000   60.452625      14.7412        6            
    529000   110.52869      24.677685      13           
    530000   124.82511      29.864402      11           
    531000   44.704531      10.340223      4            
    532000   83.358986      18.212635      11           
    533000   132.95294      32.320517      9            
    534000   157.98553      36.562231      13           
    535000   113.59999      27.658145      10           
    536000   103.69562      20.112544      14           
    537000   58.693751      13.368347      6            
    538000   44.971888      10.889922      5            
    539000   116.17447      27.492045      11           
    540000   52.704645      12.403705      6            
    541000   58.924476      14.445724      3            
    542000   51.355877      12.148054      5            
    543000   172.45579      39.684644      17           
    544000   52.049823      12.547514      8            
    545000   84.92308       20.287087      9            
    546000   96.98093       22.728568      12           
    547000   75.698856      18.487045      9            
    548000   127.1199       27.028743      13           
    549000   78.338661      18.310236      7            
    550000   58.736112      14.332336      7            
    551000   91.799196      18.80773       9            
    552000   135.37224      30.222299      10           
    553000   66.614         16.052491      8            
    554000   56.727914      12.722819      10           
    555000   89.662746      21.69356       7            
    556000   80.29882       17.462124      8            
    557000   22.545453      5.457051       6            
    558000   90.741852      20.22569       11           
    559000   105.77298      24.208457      10           
    560000   65.762736      16.129199      5            
    561000   61.537348      15.001138      6            
    562000   99.774079      22.918821      12           
    563000   108.271        25.674037      10           
    564000   90.45669       21.330431      10           
    565000   83.979219      19.556619      10           
    566000   53.712776      13.168904      5            
    567000   111.49199      26.046355      11           
    568000   23.02793       5.0255488      4            
    569000   89.343185      21.089618      9            
    570000   37.039566      8.9498372      6            
    571000   90.507583      20.362744      10           
    572000   101.48291      22.089856      14           
    573000   60.567883      14.341605      8            
    574000   88.308805      20.313512      9            
    575000   94.438784      22.551034      7            
    576000   103.11533      21.646621      11           
    577000   126.42421      29.403957      9            
    578000   85.925981      20.923095      8            
    579000   146.67532      33.403275      15           
    580000   63.318806      14.515523      7            
    581000   64.924547      14.846948      10           
    582000   83.756459      21.216669      8            
    583000   108.05367      23.230957      9            
    584000   42.382018      9.4834101      6            
    585000   77.998586      18.650524      8            
    586000   83.181247      20.322548      8            
    587000   51.610796      11.242196      9            
    588000   93.958552      20.079947      9            
    589000   94.40142       21.045353      13           
    590000   84.549364      18.744655      8            
    591000   24.714683      6.0112505      5            
    592000   35.27263       8.2866991      7            
    593000   82.35612       18.273391      8            
    594000   84.599071      19.842354      12           
    595000   123.50277      28.9439        14           
    596000   58.937202      14.422971      5            
    597000   157.77527      36.967337      15           
    598000   118.06089      27.896878      11           
    599000   174.45182      38.254578      21           
    600000   37.894521      8.8832439      8            
    601000   88.933623      19.553333      10           
    602000   128.721        28.378532      14           
    603000   76.994008      17.875832      7            
    604000   99.311458      22.708191      11           
    605000   91.857063      19.982393      14           
    606000   113.64691      27.12647       8            
    607000   28.457691      6.5410248      4            
    608000   32.361311      7.9341033      4            
    609000   46.78765       11.462589      5            
    610000   40.99259       10.024072      5            
    611000   136.64275      30.488196      12           
    612000   83.030669      17.186269      11           
    613000   98.690119      22.369141      12           
    614000   135.49323      26.935795      13           
    615000   89.403157      21.348739      6            
    616000   122.35714      28.459817      13           
    617000   60.008647      14.727469      5            
    618000   25.121412      6.1135019      3            
    619000   127.6285       30.146237      12           
    620000   73.09054       17.058918      7            
    621000   125.22782      28.635743      17           
    622000   100.54034      22.588945      11           
    623000   71.460853      18.550943      7            
    624000   51.262385      12.596949      7            
    625000   51.340166      12.594568      4            
    626000   110.4484       25.270476      14           
    627000   71.070716      17.432245      4            
    628000   47.716891      11.376117      5            
    629000   76.265561      16.886778      8            
    630000   82.528135      19.015716      9            
    631000   124.1814       28.186905      12           
    632000   96.258989      21.729177      9            
    633000   82.779285      19.051747      10           
    634000   97.540578      22.111316      13           
    635000   131.14979      31.477079      12           
    636000   70.533789      16.50306       7            
    637000   15.79711       3.7028448      5            
    638000   94.16924       21.383577      11           
    639000   91.551007      22.360039      11           
    640000   108.89498      26.123376      11           
    641000   116.35451      25.313667      10           
    642000   103.41751      22.713953      12           
    643000   44.824975      10.969981      5            
    644000   71.747822      17.087248      10           
    645000   90.843778      21.613233      8            
    646000   35.972957      8.5985396      4            
    647000   124.77051      28.284261      15           
    648000   43.653816      10.395682      6            
    649000   50.896001      12.352881      6            
    650000   34.530228      7.8142126      5            
    651000   67.651202      15.690733      9            
    652000   155.25069      35.562315      14           
    653000   32.678976      8.0147218      3            
    654000   36.49545       8.9227218      5            
    655000   106.65872      25.950524      10           
    656000   30.596451      7.3349144      4            
    657000   86.646783      20.43546       10           
    658000   112.96614      26.533554      12           
    659000   36.411688      8.9137444      4            
    660000   138.51529      33.622978      7            
    661000   76.684259      16.748212      9            
    662000   95.314776      21.467277      7            
    663000   105.76228      24.950824      11           
    664000   94.800964      21.816915      9            
    665000   115.68273      26.267434      9            
    666000   133.58913      30.339413      11           
    667000   72.307891      16.122371      12           
    668000   45.629949      11.140695      4            
    669000   82.39623       19.979115      7            
    670000   120.26729      29.322904      14           
    671000   100.84356      21.912069      13           
    672000   7.204569       1.7676061      2            
    673000   50.658813      12.409252      6            
    674000   58.780649      13.392479      8            
    675000   176.79765      41.871722      16           
    676000   36.894227      8.7591527      5            
    677000   114.7349       26.008652      13           
    678000   101.92729      24.641338      7            
    679000   52.206681      11.981585      5            
    680000   79.905821      19.278721      6            
    681000   50.976502      11.915942      5            
    682000   18.305093      4.3973986      4            
    683000   62.615456      15.28077       7            
    684000   130.59159      24.135683      15           
    685000   81.150156      19.426188      8            
    686000   42.56547       10.405697      4            
    687000   51.200828      10.928769      9            
    688000   65.136485      15.75717       7            
    689000   42.546509      10.07322       7            
    690000   134.7467       32.367451      10           
    691000   41.776299      10.229657      5            
    692000   83.580352      19.151108      10           
    693000   66.767971      16.18502       9            
    694000   62.444909      15.045971      5            
    695000   29.75861       7.0786284      5            
    696000   25.758316      6.3220177      3            
    697000   83.108212      18.839464      7            
    698000   96.035067      22.960003      9            
    699000   63.787705      15.34401       7            
    700000   43.789584      10.683984      5            
    701000   69.644931      16.003603      7            
    702000   109.44067      24.786434      11           
    703000   36.812295      8.9290872      7            
    704000   80.146119      19.37055       7            
    705000   62.883124      14.575227      9            
    706000   94.399396      23.055865      8            
    707000   36.322861      8.2591957      5            
    708000   99.118478      24.081512      8            
    709000   92.616131      21.57869       12           
    710000   61.42477       14.817338      6            
    711000   84.317382      19.140558      12           
    712000   49.875802      10.451292      8            
    713000   64.272146      14.8781        10           
    714000   115.85025      28.678248      8            
    715000   41.275437      10.071714      5            
    716000   38.348856      8.6209378      6            
    717000   31.830318      7.6393187      4            
    718000   79.703972      18.311213      8            
    719000   108.8187       24.7093        12           
    720000   77.579416      17.753983      10           
    721000   120.05324      29.036423      10           
    722000   109.87006      25.178494      10           
    723000   103.76963      23.327949      9            
    724000   80.830117      18.495368      10           
    725000   120.15942      28.256388      10           
    726000   41.569383      10.166276      5            
    727000   91.178631      21.079168      11           
    728000   50.091789      12.302855      6            
    729000   83.279286      19.095414      11           
    730000   102.68713      23.819864      12           
    731000   43.563913      10.17155       8            
    732000   59.646648      14.273363      9            
    733000   137.18213      30.252153      13           
    734000   106.98137      25.629357      10           
    735000   57.427807      12.259312      7            
    736000   91.251644      19.926206      12           
    737000   87.391056      17.289643      13           
    738000   60.83954       14.356687      6            
    739000   82.401538      19.755652      6            
    740000   145.52045      33.37597       14           
    741000   7.7441382      1.9043819      3            
    742000   32.319324      7.9296167      3            
    743000   72.326364      17.529952      7            
    744000   100.96988      24.456335      9            
    745000   63.611186      14.490832      6            
    746000   87.710492      21.094849      8            
    747000   66.046317      14.551794      10           
    748000   119.615        29.261498      7            
    749000   49.667734      10.508708      10           
    750000   97.912382      23.703845      9            
    751000   77.542663      18.082738      10           
    752000   76.920132      17.070869      11           
    753000   37.18642       8.7349272      3            
    754000   59.470366      14.432149      7            
    755000   63.83364       15.503995      7            
    756000   120.93076      27.565592      9            
    757000   117.42193      24.996478      15           
    758000   45.848488      9.6368515      8            
    759000   109.35488      25.931319      9            
    760000   25.382676      5.5975134      3            
    761000   66.696789      16.25065       6            
    762000   42.753488      10.040546      5            
    763000   94.854262      20.829703      11           
    764000   56.339353      13.404894      7            
    765000   54.642606      13.3954        5            
    766000   101.22666      24.103892      10           
    767000   104.2283       23.838008      13           
    768000   193.72424      43.850763      17           
    769000   86.147152      20.56611       11           
    770000   100.91719      23.981563      8            
    771000   111.54987      26.95751       8            
    772000   74.777338      17.236947      6            
    773000   119.81742      27.754427      12           
    774000   79.163809      18.986866      7            
    775000   24.785697      6.0715749      4            
    776000   151.95726      35.926917      11           
    777000   66.467974      16.063149      8            
    778000   120.09742      28.519104      9            
    779000   33.188417      8.1429753      3            
    780000   78.038328      18.725265      9            
    781000   88.392542      19.519458      6            
    782000   104.33542      24.108338      14           
    783000   100.66156      24.328726      13           
    784000   111.51465      26.774141      7            
    785000   128.03989      29.210406      8            
    786000   43.512404      10.063371      4            
    787000   106.86162      25.220815      7            
    788000   126.92839      29.469061      9            
    789000   79.690785      17.956393      10           
    790000   28.551672      6.937612       5            
    791000   78.470182      19.06987       7            
    792000   50.782515      12.353146      6            
    793000   70.251746      15.706636      9            
    794000   73.153958      17.693161      7            
    795000   68.988736      16.815389      7            
    796000   100.99798      23.667434      11           
    797000   27.286023      6.6317782      5            
    798000   57.800927      14.378795      6            
    799000   93.110528      22.254192      8            
    800000   56.019089      13.371909      5            
    801000   103.27914      23.813559      10           
    802000   93.079441      22.501773      10           
    803000   78.804218      17.181578      10           
    804000   127.06079      29.033991      14           
    805000   114.01756      26.402373      10           
    806000   56.964676      13.954875      7            
    807000   93.30502       20.606516      9            
    808000   109.79825      27.207006      8            
    809000   100.52765      22.375283      12           
    810000   112.38731      26.294179      8            
    811000   125.2702       27.107504      14           
    812000   41.614166      10.212006      3            
    813000   103.15963      25.092065      9            
    814000   106.43453      22.860174      12           
    815000   70.453133      17.369683      7            
    816000   59.191401      14.474882      5            
    817000   87.587465      20.328766      8            
    818000   65.883175      16.040607      7            
    819000   49.749934      12.062286      5            
    820000   136.40849      29.128607      18           
    821000   80.809713      19.555243      8            
    822000   111.17953      23.782166      13           
    823000   47.240563      10.979113      7            
    824000   124.51004      27.583234      13           
    825000   74.072581      17.089721      7            
    826000   83.960765      20.270065      7            
    827000   49.391063      10.899008      7            
    828000   85.688863      20.985859      6            
    829000   125.50898      28.067242      9            
    830000   46.439892      11.365305      6            
    831000   55.372489      13.57358       6            
    832000   114.80369      24.533721      11           
    833000   34.814548      8.3454981      4            
    834000   105.38535      25.140471      7            
    835000   82.270666      19.65078       8            
    836000   161.73363      33.215511      15           
    837000   72.939206      17.035763      10           
    838000   54.3496        13.27311       6            
    839000   73.27515       17.645744      7            
    840000   106.36235      25.20675       11           
    841000   101.88856      24.0334        12           
    842000   94.199388      19.063133      11           
    843000   33.308178      6.8039857      8            
    844000   48.308362      11.944245      6            
    845000   57.067864      13.453606      6            
    846000   23.299716      4.674351       4            
    847000   168.05553      38.842791      13           
    848000   84.847756      18.997406      10           
    849000   81.571817      19.965082      8            
    850000   33.646616      6.7575001      7            
    851000   104.9947       23.508551      12           
    852000   105.92909      25.42976       8            
    853000   80.423423      19.4743        9            
    854000   93.490705      22.434257      7            
    855000   21.540898      5.2856725      2            
    856000   31.043294      6.8677694      8            
    857000   91.340158      21.490581      12           
    858000   133.97561      32.447771      11           
    859000   63.570148      14.281907      8            
    860000   19.613499      4.7277331      2            
    861000   91.290599      21.061277      8            
    862000   63.415198      15.343808      7            
    863000   74.122163      17.54041       10           
    864000   59.272811      14.453072      7            
    865000   76.062541      16.764291      7            
    866000   89.247629      21.461623      9            
    867000   59.325827      14.426292      5            
    868000   82.654238      19.233809      11           
    869000   56.038213      12.340454      7            
    870000   99.209412      23.549285      11           
    871000   62.440847      14.937031      7            
    872000   18.414507      4.5255483      4            
    873000   51.731828      12.396386      6            
    874000   141.984        31.40528       11           
    875000   91.862933      21.980923      10           
    876000   64.286299      15.153135      8            
    877000   68.470896      16.783221      6            
    878000   18.577987      4.5522931      3            
    879000   85.756167      19.874992      10           
    880000   112.90364      27.149349      7            
    881000   179.08135      39.554759      15           
    882000   66.914512      13.991501      10           
    883000   77.694361      18.512031      8            
    884000   53.31443       11.722959      7            
    885000   73.808552      18.108286      4            
    886000   153.31251      36.027262      12           
    887000   110.75403      22.539915      14           
    888000   149.18089      34.931895      15           
    889000   60.432935      14.726441      7            
    890000   39.329748      9.0601197      5            
    891000   89.568871      20.910883      7            
    892000   158.9716       37.52269       16           
    893000   80.045282      17.148747      11           
    894000   103.828        24.139864      12           
    895000   80.444429      17.90423       13           
    896000   68.450972      15.609556      7            
    897000   63.10578       15.332223      7            
    898000   80.306415      19.331468      8            
    899000   60.376071      13.739887      7            
    900000   17.388648      4.2642347      2            
    901000   85.210664      18.551682      12           
    902000   106.13059      24.911605      9            
    903000   153.3949       34.368071      18           
    904000   173.22767      40.058031      15           
    905000   71.940019      16.847324      10           
    906000   32.449114      7.9607585      3            
    907000   119.42913      27.443448      12           
    908000   45.477699      10.852478      6            
    909000   26.339449      6.4506607      5            
    910000   143.23369      34.34174       8            
    911000   138.10808      30.859221      17           
    912000   92.284381      20.309064      10           
    913000   74.396076      17.451609      7            
    914000   93.391504      21.991052      7            
    915000   55.711482      13.402094      6            
    916000   50.280495      11.777449      4            
    917000   79.907626      19.576074      6            
    918000   28.860532      6.7732405      6            
    919000   94.749363      21.908998      8            
    920000   107.31469      24.902847      10           
    921000   55.761002      13.00511       9            
    922000   37.625784      9.2235528      4            
    923000   27.880513      6.3270009      3            
    924000   106.4472       21.917199      13           
    925000   60.130147      14.516777      6            
    926000   122.66132      29.117103      9            
    927000   96.115133      22.330768      11           
    928000   99.635875      23.41619       9            
    929000   60.156391      14.702119      8            
    930000   69.701076      16.131211      9            
    931000   122.09807      28.011384      12           
    932000   115.2081       26.577296      12           
    933000   56.655841      13.770268      6            
    934000   64.549108      15.716436      7            
    935000   57.58509       14.051776      6            
    936000   138.30758      29.617735      17           
    937000   131.70607      27.109319      14           
    938000   72.718993      15.784616      11           
    939000   88.925021      19.490169      10           
    940000   72.687512      17.566926      8            
    941000   109.8332       25.957547      11           
    942000   68.593476      14.733762      9            
    943000   60.279718      14.492085      8            
    944000   83.531385      19.562713      7            
    945000   129.573        30.385775      10           
    946000   75.12149       17.231626      11           
    947000   48.986892      11.15014       6            
    948000   119.24166      28.825087      11           
    949000   79.793659      19.468548      7            
    950000   106.24911      25.674375      9            
    951000   93.866756      19.845767      11           
    952000   130.09198      32.769305      10           
    953000   73.084808      17.24704       9            
    954000   58.125166      14.261411      4            
    955000   51.047807      11.646239      7            
    956000   93.427496      22.295407      13           
    957000   162.68148      35.542848      14           
    958000   67.128664      15.666664      8            
    959000   122.72632      29.417643      12           
    960000   67.994525      16.639942      6            
    961000   40.703129      9.6908981      5            
    962000   90.120165      20.379462      13           
    963000   133.58111      31.0615        12           
    964000   112.19155      23.906135      14           
    965000   87.220079      20.876221      12           
    966000   37.882747      8.3904998      5            
    967000   28.061894      6.879077       3            
    968000   116.58969      25.719821      14           
    969000   71.814141      15.422847      8            
    970000   119.95072      27.958718      12           
    971000   135.3513       29.204309      13           
    972000   129.58521      31.731091      8            
    973000   106.52457      24.633876      12           
    974000   60.377045      14.813987      4            
    975000   54.065427      13.128962      6            
    976000   66.993128      15.722849      7            
    977000   25.768384      5.9400539      4            
    978000   71.252962      17.397487      7            
    979000   86.713087      19.264307      12           
    980000   133.77699      31.401639      13           
    981000   21.079526      5.0913425      3            
    982000   91.888161      19.416606      12           
    983000   89.706316      19.400315      11           
    984000   67.14795       14.406332      9            
    985000   100.84307      23.632819      11           
    986000   103.07479      24.380695      8            
    987000   83.651212      19.432722      7            
    988000   84.408593      18.357875      13           
    989000   39.831242      9.7559752      3            
    990000   61.161481      14.022684      7            
    991000   59.118621      14.403242      7            
    992000   46.421699      11.0983        7            
    993000   107.5595       23.6364        13           
    994000   150.03341      33.08171       13           
    995000   94.724684      21.799635      9            
    996000   30.745819      7.5498013      4            
    997000   68.008249      15.077799      7            
    998000   67.749427      15.239942      7            
    999000   100.88291      22.494753      11           
   1000000   67.129602      16.384246      6            
   1001000   61.861298      14.675552      9            
   1002000   82.655343      19.934095      8            
   1003000   82.849256      17.644448      10           
   1004000   93.24839       21.427874      10           
   1005000   112.72325      25.369957      12           
   1006000   97.284126      22.779724      11           
   1007000   32.465548      7.9288074      4            
   1008000   60.838421      13.093732      10           
   1009000   163.87435      38.245627      14           
   1010000   86.757595      21.238891      6            
   1011000   62.97418       14.429226      10           
   1012000   56.592245      13.656982      10           
   1013000   45.855752      10.487218      6            
   1014000   75.617542      18.178348      7            
   1015000   71.148772      17.13828       7            
   1016000   105.88859      24.914867      8            
   1017000   83.186895      17.445167      12           
   1018000   34.080944      6.5309905      6            
   1019000   17.438184      4.268122       4            
   1020000   101.30399      22.8979        10           
   1021000   103.66018      23.93418       11           
   1022000   58.710599      14.385338      3            
   1023000   138.85208      30.287655      17           
   1024000   28.677027      7.0430696      4            
   1025000   77.594173      18.278057      7            
   1026000   156.69244      37.73255       12           
   1027000   98.42114       22.845819      9            
   1028000   109.31073      25.911821      10           
   1029000   33.051858      7.9870527      6            
   1030000   88.562351      21.604331      13           
   1031000   71.809807      16.291304      11           
   1032000   30.196944      6.8060725      3            
   1033000   104.92043      24.60102       9            
   1034000   115.53179      26.500451      10           
   1035000   109.15678      24.321042      12           
   1036000   88.105683      21.609995      6            
   1037000   83.594954      19.12229       11           
   1038000   88.593864      21.119416      8            
   1039000   68.919446      16.626914      9            
   1040000   48.700498      11.914942      5            
   1041000   108.11098      25.574347      8            
   1042000   104.0108       24.715153      11           
   1043000   95.0837        20.076465      10           
   1044000   79.130441      18.06318       10           
   1045000   85.567108      20.838579      6            
   1046000   93.673573      21.782801      8            
   1047000   92.029327      22.155414      5            
   1048000   97.249437      21.471927      13           
   1049000   134.08756      29.36082       16           
   1050000   78.993791      18.698195      7            
   1051000   120.15313      29.251963      10           
   1052000   172.51741      37.42886       16           
   1053000   53.341687      13.01549       6            
   1054000   124.2132       27.326199      13           
   1055000   124.57587      28.931378      13           
   1056000   33.377043      8.146713       4            
   1057000   69.48081       16.714083      6            
   1058000   112.17356      27.016992      8            
   1059000   104.33964      24.963787      10           
   1060000   85.511434      20.309992      8            
   1061000   115.04319      26.269696      11           
   1062000   101.13533      23.09773       10           
   1063000   137.3441       31.741278      9            
   1064000   51.989058      12.692735      7            
   1065000   47.666806      10.096855      7            
   1066000   11.464547      1.8181366      3            
   1067000   65.59314       14.912248      9            
   1068000   81.630891      18.089429      14           
   1069000   48.766366      11.800561      6            
   1070000   158.43708      34.704704      16           
   1071000   68.743357      15.580336      7            
   1072000   56.309899      12.776652      9            
   1073000   119.93865      28.653406      9            
   1074000   56.343834      13.764809      7            
   1075000   74.038984      17.537793      7            
   1076000   115.53144      27.267833      12           
   1077000   29.589375      7.2623838      2            
   1078000   66.064565      16.082853      8            
   1079000   116.05731      26.676788      10           
   1080000   131.34492      29.506332      13           
   1081000   67.508648      16.408734      6            
   1082000   161.37285      36.578742      18           
   1083000   49.256313      12.026328      6            
   1084000   88.713964      20.433904      10           
   1085000   124.57712      28.518772      12           
   1086000   72.066532      16.225379      8            
   1087000   98.773414      23.81091       9            
   1088000   109.81673      26.317417      11           
   1089000   48.358612      10.802         8            
   1090000   83.085611      19.441969      8            
   1091000   90.279341      20.465547      12           
   1092000   96.20737       22.787169      9            
   1093000   44.963245      10.853615      4            
   1094000   36.652904      8.9816836      3            
   1095000   91.56374       19.528062      13           
   1096000   106.14195      24.920057      8            
   1097000   136.64804      32.187828      11           
   1098000   79.780074      18.623596      7            
   1099000   116.54344      25.19013       9            
   1100000   117.97661      24.460334      11           
   1101000   58.196623      13.038085      8            
   1102000   83.930155      19.263912      8            
   1103000   90.660077      20.259433      13           
   1104000   84.09325       20.471119      10           
   1105000   151.07778      34.313108      16           
   1106000   36.854149      8.2197432      4            
   1107000   105.10365      22.292366      11           
   1108000   38.178399      8.1063047      6            
   1109000   124.76917      28.657149      8            
   1110000   81.587402      18.478942      7            
   1111000   99.14921       27.161136      7            
   1112000   18.162591      3.7077951      5            
   1113000   46.579334      10.383593      6            
   1114000   98.882629      24.125753      8            
   1115000   113.27953      25.887238      11           
   1116000   56.616828      13.881982      4            
   1117000   45.926308      10.20987       9            
   1118000   107.20898      23.304704      11           
   1119000   98.46858       23.055819      6            
   1120000   63.63749       15.523342      6            
   1121000   63.760642      14.547202      7            
   1122000   94.2721        21.694576      6            
   1123000   44.91633       10.751353      6            
   1124000   107.85586      23.925275      12           
   1125000   69.272264      15.988389      13           
   1126000   1.6857373      0.41303304     2            
   1127000   48.897713      11.91444       7            
   1128000   75.302434      17.51285       10           
   1129000   94.396802      22.012627      8            
   1130000   91.743802      21.871091      11           
   1131000   105.51481      25.76802       7            
   1132000   168.28924      39.809358      13           
   1133000   104.41088      23.549239      11           
   1134000   107.46325      25.623777      10           
   1135000   81.875944      19.13014       11           
   1136000   115.78869      27.117862      12           
   1137000   101.62085      24.04403       7            
   1138000   66.559553      14.49901       12           
   1139000   40.27679       8.754527       6            
   1140000   89.653324      20.619336      11           
   1141000   93.481982      22.057184      7            
   1142000   44.572784      10.789036      6            
   1143000   99.966869      22.32356       10           
   1144000   53.698708      13.158288      5            
   1145000   79.838811      18.985487      9            
   1146000   13.166743      3.2242037      3            
   1147000   97.089451      21.836489      11           
   1148000   44.715163      10.556607      5            
   1149000   98.473337      22.009481      10           
   1150000   160.93162      38.076737      12           
   1151000   45.447526      9.5467565      9            
   1152000   79.043254      18.655881      7            
   1153000   96.592529      23.552641      8            
   1154000   66.705465      16.139953      6            
   1155000   98.722307      23.176365      10           
   1156000   107.77252      25.310477      13           
   1157000   59.630412      14.627528      4            
   1158000   105.28354      23.077372      11           
   1159000   155.47601      35.38002       15           
   1160000   83.29737       20.189933      9            
   1161000   129.1237       30.010493      12           
   1162000   63.854883      15.584842      4            
   1163000   61.700852      15.117545      6            
   1164000   176.3168       36.807031      16           
   1165000   55.571312      12.360247      9            
   1166000   30.71188       7.5363466      4            
   1167000   69.777984      15.619151      11           
   1168000   104.97261      25.339934      10           
   1169000   73.955095      17.167184      11           
   1170000   53.715357      12.879799      6            
   1171000   130.14429      30.827711      11           
   1172000   51.703975      12.190074      6            
   1173000   128.65546      30.207716      11           
   1174000   67.146475      16.113204      7            
   1175000   104.35551      22.536871      13           
   1176000   72.792254      17.407692      9            
   1177000   107.41535      25.663247      12           
   1178000   46.223319      11.209927      5            
   1179000   106.37745      26.01291       9            
   1180000   55.504798      13.344822      6            
   1181000   49.332434      10.735495      8            
   1182000   85.207649      19.783707      12           
   1183000   82.843752      19.029365      8            
   1184000   104.04036      23.546004      9            
   1185000   74.625294      18.271595      7            
   1186000   72.974283      17.630171      7            
   1187000   123.84441      28.145272      9            
   1188000   58.236327      13.645045      9            
   1189000   30.118479      7.3901827      2            
   1190000   34.531264      8.392628       5            
   1191000   71.512871      16.413374      8            
   1192000   108.8011       23.907074      10           
   1193000   96.17017       23.251849      8            
   1194000   41.431386      9.7427977      5            
   1195000   101.6128       24.154999      9            
   1196000   104.07226      23.78202       11           
   1197000   82.388095      20.016703      5            
   1198000   89.1412        21.496596      7            
   1199000   39.794903      9.6204955      6            
   1200000   149.07567      33.995326      14           
   1201000   122.7928       28.11978       15           
   1202000   98.091133      22.507599      9            
   1203000   65.812274      15.911348      8            
   1204000   91.463797      21.899214      7            
   1205000   105.94898      25.860985      7            
   1206000   74.928746      17.555165      10           
   1207000   144.8346       34.674826      9            
   1208000   37.419138      7.8121205      8            
   1209000   53.729918      13.110883      7            
   1210000   107.94923      23.211779      14           
   1211000   77.767664      18.26729       8            
   1212000   77.69958       17.908495      7            
   1213000   120.26127      26.909731      13           
   1214000   37.900389      9.3009919      3            
   1215000   64.738352      15.475352      6            
   1216000   66.589975      15.800894      9            
   1217000   113.11191      26.622743      10           
   1218000   134.37029      29.652768      13           
   1219000   105.43502      25.266198      11           
   1220000   109.86617      26.038179      12           
   1221000   126.10976      28.991249      12           
   1222000   46.594009      11.161938      9            
   1223000   45.655678      9.5123073      5            
   1224000   103.37103      24.375008      11           
   1225000   132.68082      29.46257       17           
   1226000   59.648642      14.482862      4            
   1227000   33.137024      7.6015067      4            
   1228000   38.87782       9.5302449      3            
   1229000   156.99007      33.287148      19           
   1230000   71.717022      16.927492      4            
   1231000   49.702681      12.068113      7            
   1232000   132.48107      29.185007      14           
   1233000   44.530849      10.888585      6            
   1234000   124.42474      29.039368      12           
   1235000   78.019808      18.487508      6            
   1236000   61.713411      15.066622      5            
   1237000   71.527851      15.966075      8            
   1238000   130.18796      28.90458       11           
   1239000   48.032967      11.050462      5            
   1240000   89.209755      20.827722      9            
   1241000   33.834701      8.2355593      4            
   1242000   107.09012      24.259819      13           
   1243000   58.869814      13.82481       7            
   1244000   50.08606       12.280333      5            
   1245000   28.680245      6.9772819      5            
   1246000   38.044458      8.6100196      8            
   1247000   117.45791      27.659156      11           
   1248000   128.50424      29.69934       8            
   1249000   97.169551      23.359257      8            
   1250000   171.87696      42.110729      17           
   1251000   83.237478      18.971811      11           
   1252000   89.090097      21.293758      9            
   1253000   40.573278      9.7293579      6            
   1254000   42.018833      10.224499      4            
   1255000   59.87371       14.547027      7            
   1256000   69.76202       16.062244      7            
   1257000   50.495426      11.319912      7            
   1258000   4.8901155      1.1921672      2            
   1259000   82.726505      18.912323      10           
   1260000   142.44024      33.721902      12           
   1261000   115.26649      24.307488      12           
   1262000   106.96715      24.038752      10           
   1263000   82.993419      19.748834      8            
   1264000   93.752603      22.421854      8            
   1265000   93.116241      17.89292       12           
   1266000   42.72939       10.186097      9            
   1267000   102.3185       22.298622      8            
   1268000   101.01199      22.948758      10           
   1269000   61.965437      14.420492      8            
   1270000   50.741786      12.398812      5            
[...]
   2175000   53.796297      13.170272      5            
   2176000   85.441153      20.458498      7            
   2177000   113.104        26.930058      10           
   2178000   99.372602      24.18418       9            
   2179000   17.88907       3.4687203      5            
   2180000   56.541146      13.681324      7            
   2181000   73.419589      17.98725       7            
   2182000   89.95369       21.808197      5            
   2183000   87.20744       20.542062      8            
   2184000   47.656487      11.64574       6            
   2185000   146.42104      33.586282      14           
   2186000   51.996671      12.559002      7            
   2187000   99.078011      23.09638       13           
   2188000   75.154458      18.245683      8            
   2189000   51.868816      12.461543      7            
   2190000   38.636412      9.4708413      3            
   2191000   89.115495      19.805939      10           
   2192000   78.818394      18.751317      9            
   2193000   92.052576      22.204065      6            
   2194000   95.97249       21.815579      12           
   2195000   92.086149      20.937301      12           
   2196000   78.798048      18.495177      7            
   2197000   55.578423      10.551375      8            
   2198000   83.114969      19.593395      9            
   2199000   79.072657      19.135758      8            
   2200000   87.879891      21.490745      7            
   2201000   134.0781       31.324161      11           
   2202000   23.855786      5.841324       4            
   2203000   105.11939      24.911121      9            
   2204000   40.316775      9.7358388      5            
   2205000   48.344286      11.346373      7            
   2206000   33.257438      8.1708646      5            
   2207000   147.57587      33.603378      13           
   2208000   127.98975      30.63433       10           
   2209000   77.116952      17.72327       10           
   2210000   75.756144      17.006873      10           
   2211000   75.935781      17.212425      9            
   2212000   104.20416      23.463161      11           
   2213000   112.79596      26.278726      12           
   2214000   101.14239      21.728602      12           
   2215000   57.073656      13.98443       5            
   2216000   92.184714      19.142789      8            
   2217000   38.832246      9.2313088      6            
   2218000   149.31762      34.491517      10           
   2219000   39.482953      9.5803858      4            
   2220000   81.75298       19.73054       5            
   2221000   61.236107      14.792466      8            
   2222000   11.397935      2.1781358      4            
   2223000   75.60236       18.474122      7            
   2224000   35.734921      8.970749       5            
   2225000   82.713636      18.801743      7            
   2226000   61.933438      14.080155      6            
   2227000   88.520394      20.661798      10           
   2228000   90.583385      21.390267      8            
   2229000   90.361872      22.04389       7            
   2230000   108.11253      24.621662      10           
   2231000   118.03683      27.843732      10           
   2232000   57.996913      14.223898      3            
   2233000   84.447619      20.028375      9            
   2234000   34.218195      8.3635248      5            
   2235000   77.106322      17.072956      10           
   2236000   100.48808      23.854856      10           
   2237000   103.92459      23.892578      12           
   2238000   117.22083      26.073514      12           
   2239000   104.72044      24.17868       12           
   2240000   69.361337      15.708279      8            
   2241000   75.292792      18.117838      6            
   2242000   61.684703      14.537371      5            
   2243000   63.301756      15.177199      8            
   2244000   88.171182      19.499617      10           
   2245000   119.75207      27.116385      14           
   2246000   39.923381      9.4730871      5            
   2247000   109.19869      26.518455      7            
   2248000   43.41978       9.6599499      6            
   2249000   59.185567      14.415283      7            
   2250000   100.99836      21.700445      9            
   2251000   47.460364      11.644711      3            
   2252000   112.99642      27.200905      9            
   2253000   95.670552      21.85588       10           
   2254000   128.67365      29.879155      13           
   2255000   79.552008      19.335211      8            
   2256000   108.46368      26.008927      8            
   2257000   83.537885      19.481648      10           
   2258000   148.46635      33.931222      14           
   2259000   177.82123      41.336011      11           
   2260000   24.314099      5.4477227      7            
   2261000   133.22174      31.360103      9            
   2262000   119.08758      27.72114       13           
   2263000   120.08293      28.478461      10           
   2264000   106.3177       25.029183      13           
   2265000   79.801208      18.544426      8            
   2266000   43.562658      10.011521      8            
   2267000   120.84455      28.565933      10           
   2268000   64.758862      15.404632      6            
   2269000   54.399685      13.047731      7            
   2270000   30.463603      7.4654102      5            
   2271000   109.13249      25.577448      10           
   2272000   5.888652       1.0376461      2            
   2273000   60.109549      13.219944      10           
   2274000   138.07661      32.068785      17           
   2275000   103.38503      24.274325      9            
   2276000   124.05453      26.255768      14           
   2277000   124.70196      29.867388      10           
   2278000   111.54955      22.389293      12           
   2279000   128.51279      29.209974      11           
   2280000   88.192393      19.540898      12           
   2281000   120.77658      28.106323      14           
   2282000   90.810789      21.46384       11           
   2283000   92.642638      22.659283      7            
   2284000   100.06048      22.118419      11           
   2285000   80.867902      17.874073      11           
   2286000   125.96121      29.950859      11           
   2287000   149.2499       33.258768      16           
   2288000   75.981133      17.304334      7            
   2289000   32.678091      8.0161849      4            
   2290000   112.50787      26.267679      15           
   2291000   61.064971      14.846751      7            
   2292000   66.937398      16.284728      7            
   2293000   59.653277      14.309972      5            
   2294000   56.400827      13.804         6            
   2295000   98.208406      23.310525      8            
   2296000   69.653481      16.851537      7            
   2297000   121.2086       27.642723      11           
   2298000   150.39444      35.660873      10           
   2299000   93.437326      22.686722      8            
   2300000   86.746751      21.144894      8            
   2301000   155.76959      35.407488      13           
   2302000   76.715913      17.395598      8            
   2303000   82.607846      20.096371      8            
   2304000   85.522514      20.157938      8            
   2305000   90.204341      20.706585      10           
   2306000   98.895074      22.148196      12           
   2307000   109.22026      26.611258      10           
   2308000   111.64862      25.033768      13           
   2309000   129.3593       30.47597       10           
   2310000   116.68122      27.659731      8            
   2311000   78.950052      18.898452      5            
   2312000   161.82776      35.232578      15           
   2313000   98.229659      24.261688      9            
   2314000   120.22379      27.885555      10           
   2315000   60.375595      14.072265      10           
   2316000   60.018189      14.611246      6            
   2317000   65.998423      16.174548      6            
   2318000   80.271117      19.337448      10           
   2319000   86.838283      19.816725      10           
   2320000   138.84946      30.721366      16           
   2321000   56.349626      12.211169      8            
   2322000   90.370962      19.300378      10           
   2323000   79.835735      19.118883      13           
   2324000   89.224138      20.304082      12           
   2325000   57.773468      14.041039      9            
   2326000   96.880892      23.593691      8            
   2327000   93.705324      19.771788      13           
   2328000   54.699161      12.287963      9            
   2329000   50.567331      11.976113      6            
   2330000   154.01011      35.69169       10           
   2331000   91.033689      22.393224      7            
   2332000   89.627332      21.395824      10           
   2333000   40.366196      7.4899147      8            
   2334000   84.291559      20.538839      8            
   2335000   9.5905334      2.3535951      1            
   2336000   76.857212      18.764719      9            
   2337000   89.927859      21.974317      9            
   2338000   67.649054      14.340458      10           
   2339000   50.280249      11.915393      5            
   2340000   102.01233      24.2339        9            
   2341000   67.592831      16.561653      5            
   2342000   56.569046      13.804938      8            
   2343000   149.88071      35.826746      12           
   2344000   125.54976      30.469939      9            
   2345000   84.004473      18.577839      15           
   2346000   94.139539      23.056862      4            
   2347000   66.13033       14.368761      9            
   2348000   96.287805      22.477039      10           
   2349000   131.32523      32.043648      9            
   2350000   99.450545      23.512248      11           
   2351000   55.745982      11.936828      7            
   2352000   133.79217      30.548262      15           
   2353000   33.873759      8.3182554      2            
   2354000   51.688262      12.573961      7            
   2355000   56.794519      13.65471       7            
   2356000   75.491369      18.347511      7            
   2357000   71.519312      16.188179      10           
   2358000   126.87999      30.314449      12           
   2359000   100.98794      23.498587      10           
   2360000   102.88186      23.571183      13           
   2361000   25.383363      6.2279311      3            
   2362000   104.92689      25.632341      9            
   2363000   153.60692      36.311151      10           
   2364000   134.33511      30.155195      12           
   2365000   125.63305      30.340466      10           
   2366000   53.176688      12.766389      7            
   2367000   84.270755      20.010253      9            
   2368000   71.225082      17.375001      7            
   2369000   23.300658      5.1537915      5            
   2370000   85.917717      20.833262      8            
   2371000   96.737922      22.908955      10           
   2372000   174.71002      39.724358      15           
   2373000   91.979732      19.834754      10           
   2374000   87.437738      18.623054      10           
   2375000   72.192445      17.467061      6            
   2376000   96.928506      21.746336      12           
   2377000   125.98074      28.711749      15           
   2378000   92.980627      20.272084      10           
   2379000   65.794557      12.954014      8            
   2380000   126.86942      27.66467       13           
   2381000   84.257997      19.803462      9            
   2382000   121.54841      28.929418      9            
   2383000   82.460323      19.78968       10           
   2384000   53.981809      13.073576      5            
   2385000   97.074073      23.353562      7            
   2386000   88.485413      21.89012       8            
   2387000   73.496157      17.9082        6            
   2388000   108.48975      24.294295      11           
   2389000   83.257054      18.704642      11           
   2390000   103.87786      22.725809      11           
   2391000   73.585457      17.340657      9            
   2392000   76.300499      13.972616      12           
   2393000   24.220312      5.8672861      5            
   2394000   94.092009      22.445541      11           
   2395000   27.735038      6.8076951      3            
   2396000   103.13217      22.965526      12           
   2397000   84.115542      20.228142      12           
   2398000   32.550681      7.7108658      5            
   2399000   35.851567      7.6011456      5            
   2400000   71.689037      16.538998      9            
   2401000   120.55775      27.709972      12           
   2402000   66.197536      16.229953      6            
   2403000   88.491817      20.219694      11           
   2404000   82.267619      18.891415      7            
   2405000   62.199404      14.051043      10           
   2406000   123.55538      26.005424      14           
   2407000   90.045862      19.585154      9            
   2408000   177.10906      40.050556      15           
   2409000   75.764807      17.613824      6            
   2410000   21.906811      5.1062946      4            
   2411000   179.64579      40.039226      15           
   2412000   45.028391      9.4649109      9            
   2413000   12.413059      2.6473064      3            
   2414000   135.17288      31.730294      11           
   2415000   147.44666      34.299945      11           
   2416000   92.46834       22.129689      9            
   2417000   89.818404      19.535582      10           
   2418000   135.86727      32.65065       12           
   2419000   38.168522      9.3647832      5            
   2420000   39.425042      9.6407563      3            
   2421000   136.50216      32.492653      11           
   2422000   38.014434      9.2893945      4            
   2423000   91.021437      19.363327      10           
   2424000   101.057        24.512214      11           
   2425000   62.813663      14.887452      5            
   2426000   114.05629      27.0732        12           
   2427000   60.824899      13.17281       9            
   2428000   23.25319       5.6832289      5            
   2429000   48.980498      11.977363      6            
   2430000   77.842225      18.899257      8            
   2431000   76.03182       17.125474      9            
   2432000   103.53522      23.961886      13           
   2433000   111.26693      21.508213      12           
   2434000   131.46766      30.015405      13           
   2435000   61.255812      14.558481      7            
   2436000   65.215251      15.964631      6            
   2437000   102.97236      25.108172      9            
   2438000   32.700648      7.865934       5            
   2439000   69.205807      16.577295      7            
   2440000   99.688433      24.33679       8            
   2441000   93.915713      21.719562      12           
   2442000   105.39133      22.564285      14           
   2443000   81.463362      17.744432      11           
   2444000   36.691842      9.0056889      4            
   2445000   69.921753      15.92492       10           
   2446000   47.788752      11.672564      7            
   2447000   126.63695      28.271909      15           
   2448000   144.55932      33.892108      10           
   2449000   114.17957      25.501762      9            
   2450000   65.60037       15.819934      5            
   2451000   94.074604      20.833718      14           
   2452000   142.78036      31.952723      12           
   2453000   137.28741      32.154068      13           
   2454000   133.22884      29.678071      13           
   2455000   36.377151      8.9258294      4            
   2456000   71.648078      14.98623       10           
   2457000   136.07151      33.009409      10           
   2458000   48.89704       11.61746       3            
   2459000   16.747681      4.0984496      4            
   2460000   86.769777      19.626398      10           
   2461000   58.348776      13.998607      5            
   2462000   117.36902      28.039683      10           
   2463000   39.51936       9.6535459      6            
   2464000   24.309936      5.9410968      5            
   2465000   93.078789      20.630797      11           
   2466000   117.01782      25.684004      14           
   2467000   31.469324      7.6659798      3            
   2468000   4.2349204      1.0392331      1            
   2469000   62.217638      13.79571       9            
   2470000   98.296297      23.734272      8            
   2471000   99.629232      22.279587      11           
   2472000   103.50371      23.936628      7            
   2473000   146.86196      35.414575      9            
   2474000   59.808844      14.05673       9            
   2475000   131.64986      30.153256      13           
   2476000   87.027025      20.777892      8            
   2477000   59.927152      13.594813      8            
   2478000   70.871265      16.264275      9            
   2479000   56.64412       12.154079      7            
   2480000   68.766665      16.568339      8            
   2481000   57.020035      13.931754      4            
   2482000   116.58393      26.137499      11           
   2483000   105.35341      25.096207      7            
   2484000   140.98322      33.077139      10           
   2485000   44.528265      10.875008      5            
   2486000   80.884829      19.559937      8            
   2487000   109.81506      24.990897      12           
   2488000   81.631286      18.091651      10           
   2489000   60.723835      13.66318       7            
   2490000   118.55725      28.511234      9            
   2491000   90.904973      21.292997      10           
   2492000   70.30012       18.12905       8            
   2493000   55.161986      11.410727      5            
   2494000   42.465595      10.234017      6            
   2495000   50.716588      12.324563      7            
   2496000   158.63148      32.700083      17           
   2497000   115.89429      27.225413      10           
   2498000   74.161655      16.498568      11           
   2499000   55.5523        12.797481      8            
   2500000   104.89132      25.547768      8            
   2501000   98.574725      21.651595      11           
   2502000   57.46417       13.392671      9            
Loop time of 681.58 on 8 procs for 2500000 steps with 27 atoms

Performance: 316.911 ns/day, 0.076 hours/ns, 3667.949 timesteps/s, 99.035 katom-step/s
798.1% CPU use with 1 MPI tasks x 8 OpenMP threads

MPI task timing breakdown:
Section |  min time  |  avg time  |  max time  |%varavg| %total
---------------------------------------------------------------
Pair    | 8.016      | 8.016      | 8.016      |   0.0 |  1.18
Bond    | 12.067     | 12.067     | 12.067     |   0.0 |  1.77
Kspace  | 131.28     | 131.28     | 131.28     |   0.0 | 19.26
Neigh   | 0.40699    | 0.40699    | 0.40699    |   0.0 |  0.06
Comm    | 3.6021     | 3.6021     | 3.6021     |   0.0 |  0.53
Output  | 0.091338   | 0.091338   | 0.091338   |   0.0 |  0.01
Modify  | 525.36     | 525.36     | 525.36     |   0.0 | 77.08
Other   |            | 0.7575     |            |       |  0.11

Nlocal:             27 ave          27 max          27 min
Histogram: 1 0 0 0 0 0 0 0 0 0
Nghost:            233 ave         233 max         233 min
Histogram: 1 0 0 0 0 0 0 0 0 0
Neighs:            259 ave         259 max         259 min
Histogram: 1 0 0 0 0 0 0 0 0 0

Total # of neighbors = 259
Ave neighs/atom = 9.5925926
Ave special neighs/atom = 2
Neighbor list builds = 2554310
Dangerous builds = 0
Total wall time: 0:11:21
