LAMMPS (27 Jun 2024)
  using 8 OpenMP thread(s) per MPI task
package omp 0
using multi-threaded neighbor list subroutines
# LAMMPS input script by Simon Gravelle
# For LAMMPS tutorials, see https://lammpstutorials.github.io
# Last tested using the 27Jun2024 LAMMPS version

variable Nstep equal 2500000
variable mu_K equal -4800
variable mu_kcal_mol equal ${mu_K}*0.0019872041
variable mu_kcal_mol equal -4800*0.0019872041
print "mu equal ${mu_kcal_mol}"
mu equal -9.53857968
variable tfac equal 5.0/3.0
variable Nattempt equal 10

units real
boundary p p p
atom_style full
pair_style lj/cut/coul/long 12
kspace_style ewald 1.0e-5
bond_style harmonic
angle_style harmonic
pair_modify mix geometric
special_bonds lj 0.0 0.0 0.0 coul 0.0 0.0 0.0 angle yes

read_data box.data
Reading data file ...
  orthogonal box = (-25 -25 -25) to (25 25 25)
  1 by 1 by 1 MPI processor grid
  reading atom labelmap ...
  reading bond labelmap ...
  reading angle labelmap ...
  reading atoms ...
  150 atoms
  reading velocities ...
  150 velocities
  scanning bonds ...
  1 = max bonds/atom
  scanning angles ...
  1 = max angles/atom
  orthogonal box = (-25 -25 -25) to (25 25 25)
  1 by 1 by 1 MPI processor grid
  reading bonds ...
  100 bonds
  reading angles ...
  50 angles
Finding 1-2 1-3 1-4 neighbors ...
  special bond factors lj:    0        0        0       
  special bond factors coul:  0        0        0       
     2 = max # of 1-2 neighbors
     1 = max # of 1-3 neighbors
     1 = max # of 1-4 neighbors
  100 = # of 1-3 neighbors before angle trim
  100 = # of 1-3 neighbors after angle trim
     2 = max # of special neighbors
  special bonds CPU = 0.000 seconds
  read_data CPU = 0.015 seconds
labelmap atom 1 O 2 C
labelmap bond 1 C-O
labelmap angle 1 O-C-O

group CO2 type C O
150 atoms in group CO2
include parm.lmp
# LAMMPS parameter file for H2O SPCE water model
# For conversion from K to kcal / mol, multiply
# by Boltzmann = 0.0019872041 kcal / (mol * K)

mass O 15.9994
mass C 12.0110

pair_coeff O O 0.164858 3.011
pair_coeff C C 0.05894 2.789

bond_coeff C-O 0.0 1.18 # rigid

angle_coeff O-C-O 0.0 180.0 # rigid

molecule CO2mol CO2.mol
Read molecule template CO2mol:
# LAMMPS molecule file for carbondioxide
  1 molecules
  0 fragments
  3 atoms with max type 2
  2 bonds with max type 1
  1 angles with max type 1
  0 dihedrals with max type 0
  0 impropers with max type 0

fix mynvt CO2 rigid/nvt/small molecule temp 300 300 100 mol CO2mol
  create bodies CPU = 0.000 seconds
  50 rigid bodies with 150 atoms
  1.18 = max distance from body owner to body atom
thermo 1000

run 2000

CITE-CITE-CITE-CITE-CITE-CITE-CITE-CITE-CITE-CITE-CITE-CITE-CITE

Your simulation uses code contributions which should be cited:

- Type Label Framework: https://doi.org/10.1021/acs.jpcb.3c08419

@Article{Gissinger24,
 author = {Jacob R. Gissinger, Ilia Nikiforov, Yaser Afshar, Brendon Waters, Moon-ki Choi, Daniel S. Karls, Alexander Stukowski, Wonpil Im, Hendrik Heinz, Axel Kohlmeyer, and Ellad B. Tadmor},
 title = {Type Label Framework for Bonded Force Fields in LAMMPS},
 journal = {J. Phys. Chem. B},
 year =    2024,
 volume =  128,
 number =  13,
 pages =   {3282–-3297}
}

CITE-CITE-CITE-CITE-CITE-CITE-CITE-CITE-CITE-CITE-CITE-CITE-CITE

Ewald initialization ...
  using 12-bit tables for long-range coulomb (src/kspace.cpp:342)
  G vector (1/distance) = 0.20077039
  estimated absolute RMS force accuracy = 0.0039018044
  estimated relative force accuracy = 1.1750168e-05
  KSpace vectors: actual max1d max3d = 1054 8 2456
                  kxmax kymax kzmax  = 8 8 8
Generated 1 of 1 mixed pair_coeff terms from geometric mixing rule
Last active /omp style is kspace_style ewald/omp
Neighbor list info ...
  update: every = 1 steps, delay = 0 steps, check = yes
  max neighbors/atom: 2000, page size: 100000
  master list distance cutoff = 14
  ghost atom cutoff = 14
  binsize = 7, bins = 8 8 8
  1 neighbor lists, perpetual/occasional/extra = 1 0 0
  (1) pair lj/cut/coul/long/omp, perpetual
      attributes: half, newton on, omp
      pair build: half/bin/newton/omp
      stencil: half/bin/3d
      bin: standard
Per MPI rank memory allocation (min/avg/max) = 31.23 | 31.23 | 31.23 Mbytes
   Step          Temp          E_pair         E_mol          TotEng         Press     
         0   0             -1.3802283      0             -1.3802283     -1.9091073    
      1000   244.97829     -2.8147982      0              57.307781      2.9372644    
      2000   217.84894     -2.3855577      0              51.078935      19.431984    
Loop time of 0.631474 on 8 procs for 2000 steps with 150 atoms

Performance: 273.646 ns/day, 0.088 hours/ns, 3167.195 timesteps/s, 475.079 katom-step/s
800.0% CPU use with 1 MPI tasks x 8 OpenMP threads

MPI task timing breakdown:
Section |  min time  |  avg time  |  max time  |%varavg| %total
---------------------------------------------------------------
Pair    | 0.010504   | 0.010504   | 0.010504   |   0.0 |  1.66
Bond    | 0.009762   | 0.009762   | 0.009762   |   0.0 |  1.55
Kspace  | 0.53301    | 0.53301    | 0.53301    |   0.0 | 84.41
Neigh   | 0.00079917 | 0.00079917 | 0.00079917 |   0.0 |  0.13
Comm    | 0.0054821  | 0.0054821  | 0.0054821  |   0.0 |  0.87
Output  | 2.6501e-05 | 2.6501e-05 | 2.6501e-05 |   0.0 |  0.00
Modify  | 0.070708   | 0.070708   | 0.070708   |   0.0 | 11.20
Other   |            | 0.001183   |            |       |  0.19

Nlocal:            150 ave         150 max         150 min
Histogram: 1 0 0 0 0 0 0 0 0 0
Nghost:            444 ave         444 max         444 min
Histogram: 1 0 0 0 0 0 0 0 0 0
Neighs:           1106 ave        1106 max        1106 min
Histogram: 1 0 0 0 0 0 0 0 0 0

Total # of neighbors = 1106
Ave neighs/atom = 7.3733333
Ave special neighs/atom = 2
Neighbor list builds = 27
Dangerous builds = 0

fix fgcmc CO2 gcmc 100 ${Nattempt} 0 0 25899 300 ${mu_kcal_mol} 0.1     mol CO2mol tfac_insert ${tfac} full_energy rigid mynvt
fix fgcmc CO2 gcmc 100 10 0 0 25899 300 ${mu_kcal_mol} 0.1     mol CO2mol tfac_insert ${tfac} full_energy rigid mynvt
fix fgcmc CO2 gcmc 100 10 0 0 25899 300 -9.53857968 0.1     mol CO2mol tfac_insert ${tfac} full_energy rigid mynvt
fix fgcmc CO2 gcmc 100 10 0 0 25899 300 -9.53857968 0.1     mol CO2mol tfac_insert 1.66666666666667 full_energy rigid mynvt

variable carbon atom "type==2"
group carbon dynamic all var carbon
dynamic group carbon defined
variable nC equal count(carbon)
fix myat1 all ave/time 10 10 1000 v_nC file number_CO2.dat
variable density equal v_nC*(2*15.9994+12.011)/vol/6.022e23*(1e8)^3
fix myat2 all ave/time 10 10 1000 v_density file density_CO2.dat
compute press all pressure thermo_temp
fix myat3 all ave/time 10 100 1000 c_press file pressure_CO2.dat
thermo_style custom step temp etotal v_nC

run ${Nstep}
run 2500000
Ewald initialization ...
  using 12-bit tables for long-range coulomb (src/kspace.cpp:342)
  G vector (1/distance) = 0.20077039
  estimated absolute RMS force accuracy = 0.0039018044
  estimated relative force accuracy = 1.1750168e-05
  KSpace vectors: actual max1d max3d = 1054 8 2456
                  kxmax kymax kzmax  = 8 8 8
Generated 1 of 1 mixed pair_coeff terms from geometric mixing rule
Last active /omp style is kspace_style ewald/omp
0 atoms in group FixGCMC:gcmc_exclusion_group:fgcmc
0 atoms in group FixGCMC:rotation_gas_atoms:fgcmc
WARNING: Neighbor exclusions used with KSpace solver may give inconsistent Coulombic energies (src/neighbor.cpp:658)
Per MPI rank memory allocation (min/avg/max) = 31.23 | 31.23 | 31.23 Mbytes
   Step          Temp          TotEng          v_nC     
      2000   217.84894      51.078935      50           
      3000   244.24552      59.931379      11           
      4000   73.283142      17.854617      6            
      5000   29.982664      7.3410136      2            
      6000   42.149033      10.342995      2            
      7000   24.478133      6.0068379      1            
      8000   47.849708      11.741266      3            
      9000   83.124117      20.397686      4            
     10000   46.074473      11.307128      3            
     11000   49.077525      12.040044      4            
     12000   105.87527      25.647919      8            
     13000   4.367292       1.0712343      1            
     14000   3.3065852      0.81030717     2            
     15000   65.1574        15.988368      4            
     16000   37.972831      8.9967939      5            
     17000   65.719419      16.118702      4            
     18000   81.967601      20.040287      7            
     19000   61.576716      14.252998      4            
     20000   25.501256      6.2541424      6            
     21000   72.703479      17.840346      4            
     22000   31.972927      7.8454159      2            
     23000   43.795176      10.746108      4            
     24000   61.74222       15.149333      6            
     25000   62.140472      14.710172      6            
     26000   67.020517      15.611875      4            
     27000   66.462884      16.285808      5            
     28000   9.0325157      2.2161735      1            
     29000   126.44803      31.029511      5            
     30000   30.635478      7.5161125      4            
     31000   12.263899      3.0092208      1            
     32000   70.236846      17.234082      6            
     33000   6.837076       1.6773701      1            
     34000   109.929        26.399323      7            
     35000   92.886898      22.792798      6            
     36000   85.384337      20.951331      6            
     37000   48.634308      11.933362      4            
     38000   25.270918      6.1998208      4            
     39000   22.712854      5.5724586      3            
     40000   47.038409      11.5424        3            
     41000   72.425149      17.772212      4            
     42000   72.793556      17.85992       7            
     43000   115.38986      28.316703      4            
     44000   31.778667      7.7972898      3            
     45000   10.61739       2.6045545      2            
     46000   27.60466       6.7632374      5            
     47000   93.753143      22.996285      7            
     48000   45.39201       11.138268      3            
     49000   70.930613      17.401175      4            
     50000   50.72991       12.070227      7            
     51000   9.9462786      2.4404311      1            
     52000   95.981042      23.553866      3            
     53000   77.466074      19.007744      6            
     54000   28.727012      7.0490136      4            
     55000   41.211152      10.113055      2            
     56000   59.080953      14.50219       5            
     57000   46.85317       11.496949      3            
     58000   79.355814      19.471229      7            
     59000   22.050247      5.408575       4            
     60000   72.327906      17.745476      6            
     61000   69.515081      17.059007      3            
     62000   68.867804      16.900363      2            
     63000   43.890461      10.770411      2            
     64000   108.15935      26.383204      7            
     65000   119.36095      29.29152       4            
     66000   120.36134      29.537503      3            
     67000   55.300987      13.52231       7            
     68000   7.6213684      1.8698504      1            
     69000   90.726704      22.263644      6            
     70000   80.714963      19.797312      6            
     71000   63.206966      15.510553      3            
     72000   44.518366      10.885441      5            
     73000   39.511494      9.6951241      3            
     74000   47.390248      11.629305      2            
     75000   165.6601       40.369631      10           
     76000   53.436242      13.113164      2            
     77000   126.99038      31.160414      8            
     78000   29.214266      7.1694579      4            
     79000   105.4931       25.887675      6            
     80000   41.519748      10.162634      4            
     81000   35.573857      8.727776       5            
     82000   172.01139      42.152605      8            
     83000   89.964919      22.022596      7            
     84000   79.393823      19.481491      5            
     85000   52.918963      12.982312      8            
     86000   53.148169      13.037964      4            
     87000   24.291354      5.9601638      3            
     88000   69.495612      17.016319      5            
     89000   55.327612      13.57627       4            
     90000   78.066215      19.091869      6            
     91000   64.038932      15.71418       4            
     92000   47.980677      11.773083      4            
     93000   30.496899      7.481862       3            
     94000   128.45868      31.516216      6            
     95000   67.819617      16.626757      6            
     96000   50.083362      12.281775      3            
     97000   68.973155      16.913673      5            
     98000   37.950562      9.3126413      2            
     99000   5.0967469      1.2502576      1            
    100000   28.163762      6.9107217      2            
    101000   18.152652      4.4538177      2            
    102000   90.865426      22.298691      6            
    103000   38.976879      9.5645467      2            
    104000   97.568481      23.929566      8            
    105000   25.317142      6.2121572      2            
    106000   50.287548      12.339101      4            
    107000   62.773001      15.400379      4            
    108000   93.027253      22.825809      4            
    109000   36.481562      8.9502713      5            
    110000   43.295709      10.623798      3            
    111000   42.638165      10.462615      3            
    112000   34.899898      8.5631089      3            
    113000   49.087376      12.045006      4            
    114000   11.635331      2.8544033      2            
    115000   24.480416      6.0064093      4            
    116000   61.84123       15.173843      6            
    117000   157.93954      38.622884      9            
    118000   63.429414      15.551593      6            
    119000   29.754679      7.3002375      4            
    120000   155.72444      38.214811      6            
    121000   66.261574      16.258409      6            
    122000   80.152649      19.662477      3            
    123000   48.124095      11.804163      4            
    124000   100.75172      24.369094      8            
    125000   42.976918      10.545419      5            
    126000   99.350362      24.378105      6            
    127000   72.947287      17.902139      1            
    128000   103.5467       25.411502      3            
    129000   71.695789      17.560157      4            
    130000   30.705641      7.5348404      2            
    131000   18.551659      4.5509252      4            
    132000   113.54655      27.844917      8            
    133000   42.746418      10.490681      5            
    134000   46.141035      11.321286      4            
    135000   54.920773      13.476158      4            
    136000   7.6405208      1.8745512      1            
    137000   58.07745       12.324898      4            
    138000   29.690221      7.2849498      3            
    139000   98.267092      24.113513      6            
    140000   24.878026      6.102586       4            
    141000   13.834869      3.394152       2            
    142000   63.317755      15.535785      6            
    143000   38.748749      9.5085633      2            
    144000   66.482289      16.296378      6            
    145000   76.622361      18.802426      6            
    146000   30.839221      7.5701523      5            
    147000   62.717558      15.361047      6            
    148000   117.69583      28.88218       6            
    149000   75.45514       18.505181      6            
    150000   56.413238      13.842092      5            
    151000   62.22026       15.268949      2            
    152000   16.892967      4.1440196      3            
    153000   1.5122738      0.37055747     1            
    154000   141.44246      34.71506       6            
    155000   28.982173      7.1109994      3            
    156000   63.665475      15.623689      4            
    157000   72.21642       17.710636      7            
    158000   27.445388      6.7332219      4            
    159000   18.607047      4.5496617      4            
    160000   77.697233      19.030604      6            
    161000   58.591183      14.375874      6            
    162000   42.969168      10.543666      3            
    163000   62.333363      15.296551      3            
    164000   73.854932      18.122698      4            
    165000   60.611396      14.874621      4            
    166000   49.11701       12.049064      3            
    167000   31.099268      7.623096       2            
    168000   111.40101      27.342245      7            
    169000   23.180086      5.6870867      3            
    170000   78.18676       19.171857      6            
    171000   62.866238      15.35167       5            
    172000   60.322194      14.802186      4            
    173000   47.646091      11.68054       5            
    174000   5.4510592      1.3372129      1            
    175000   94.734881      23.238057      8            
    176000   48.560775      11.916032      3            
    177000   4.9098039      1.2038128      2            
    178000   93.162248      22.825238      5            
    179000   84.422331      20.711564      8            
    180000   33.206118      8.1476016      3            
    181000   6.3653562      1.5615997      1            
    182000   154.57336      37.914762      9            
    183000   57.32054       14.065721      3            
    184000   21.068087      5.1689819      3            
    185000   47.899667      11.751532      4            
    186000   92.17786       22.619726      4            
    187000   26.618545      6.5314765      2            
    188000   84.524304      20.729731      5            
    189000   7.8585656      1.9280626      1            
    190000   33.639609      8.2519794      5            
    191000   97.716913      23.977716      7            
    192000   24.538165      6.0204506      3            
    193000   30.461544      7.4738494      4            
    194000   63.314602      15.534971      6            
    195000   69.514128      17.050318      5            
    196000   54.234279      13.303786      5            
    197000   108.19447      26.550766      5            
    198000   12.836754      3.1475824      3            
    199000   34.770688      7.8891362      2            
    200000   92.713358      22.707703      7            
    201000   56.665784      13.904774      4            
    202000   36.305916      8.9090637      2            
    203000   7.911622       1.940504       2            
    204000   46.546233      11.421943      5            
    205000   42.466266      10.421486      1            
    206000   63.625631      15.61075       6            
    207000   107.91531      26.481543      7            
    208000   35.302951      8.6628646      2            
    209000   94.655195      23.218438      7            
    210000   27.337473      6.7074441      3            
    211000   19.003544      4.6625985      2            
    212000   18.040595      4.4257673      3            
    213000   14.114777      3.4600736      3            
    214000   77.162347      18.60667       6            
    215000   33.813496      8.2960691      6            
    216000   11.104712      2.7231047      3            
    217000   4.7177126      1.1572344      1            
    218000   65.866451      16.163402      3            
    219000   85.800836      21.054528      5            
    220000   118.98021      29.05279       5            
    221000   59.819078      14.678545      4            
    222000   135.60564      33.272898      6            
    223000   66.173984      16.237891      4            
    224000   72.501367      17.790067      5            
    225000   19.868157      4.8748382      2            
    226000   54.495342      13.343065      5            
    227000   9.6573158      2.3683738      3            
    228000   63.247034      15.520699      3            
    229000   37.143846      9.1147195      2            
    230000   76.133261      18.422401      10           
    231000   33.656649      8.2535114      2            
    232000   149.82821      36.68978       7            
    233000   7.1751152      1.7597191      2            
    234000   32.642889      8.0100136      2            
    235000   48.989352      12.019134      6            
    236000   140.08627      34.35385       4            
    237000   6.6115942      1.6220324      1            
    238000   16.631427      4.0805437      2            
    239000   55.90946       13.718899      4            
    240000   97.491701      23.926695      6            
    241000   105.09872      25.791649      5            
    242000   82.749911      20.304606      6            
    243000   56.902652      13.962893      4            
    244000   43.60075       10.696967      4            
    245000   59.563208      14.615089      4            
    246000   12.454205      3.0553362      2            
    247000   10.062055      2.4688436      1            
    248000   50.572107      12.409464      3            
    249000   25.718443      6.3100673      3            
    250000   113.67496      27.8941        8            
    251000   79.950887      19.619557      3            
    252000   23.708329      5.8155744      5            
    253000   3.6997783      0.90741334     1            
    254000   111.88061      27.45348       7            
    255000   5.6560183      1.3869971      2            
    256000   91.860014      21.726715      5            
    257000   24.129603      5.9195453      4            
    258000   29.940209      7.3467073      3            
    259000   39.382922      9.6637509      3            
    260000   31.932868      7.8349387      3            
    261000   41.342545      10.148076      3            
    262000   47.32193       11.611912      3            
    263000   82.523135      20.252875      5            
    264000   141.48914      34.64436       6            
    265000   81.144026      19.911321      4            
    266000   62.534036      15.344481      5            
    267000   81.862749      19.968251      6            
    268000   32.734841      8.0318494      5            
    269000   93.821462      23.023408      5            
    270000   119.19364      29.249118      7            
    271000   25.456276      6.2467518      2            
    272000   45.400247      11.13958       4            
    273000   3.5443602      0.8692705      1            
    274000   28.058326      6.8848544      2            
    275000   34.287704      8.4131279      3            
    276000   0.72860987     0.1782301      1            
    277000   87.168352      21.389254      6            
    278000   37.222822      8.8178219      4            
    279000   29.893509      7.3353177      2            
    280000   92.481071      22.682333      5            
    281000   52.717402      12.936128      3            
    282000   69.444908      17.040673      4            
    283000   13.99817       3.4342503      2            
    284000   18.816689      4.6168159      2            
    285000   105.37395      25.852568      8            
    286000   72.836512      17.873134      4            
    287000   101.59355      24.927356      6            
    288000   64.875843      15.896957      7            
    289000   53.339825      13.089955      3            
    290000   67.853741      16.640646      8            
    291000   17.640127      4.324591       3            
    292000   142.31133      34.909559      8            
    293000   69.863464      17.139743      6            
    294000   33.908008      8.3061023      3            
    295000   150.99332      37.052543      7            
    296000   45.387839      11.134411      5            
    297000   54.545765      13.369808      5            
    298000   33.421194      8.1798093      6            
    299000   28.584197      7.0131774      3            
    300000   53.113911      13.03213       5            
    301000   14.506165      3.5591001      2            
    302000   72.277941      17.736294      6            
    303000   168.41067      41.329039      4            
    304000   16.79436       4.119867       3            
    305000   8.1616339      2.0019451      2            
    306000   79.299542      19.442657      8            
    307000   31.05533       7.6204474      2            
    308000   105.8749       25.980299      5            
    309000   73.638856      18.068674      5            
    310000   32.119086      7.8807999      3            
    311000   99.678399      24.462007      5            
    312000   42.916434      10.531253      2            
    313000   16.392524      4.0218845      2            
    314000   79.64718       19.5409        4            
    315000   33.629889      8.2521539      4            
    316000   70.468211      17.292405      3            
    317000   55.244779      13.557003      2            
    318000   73.586694      18.057465      4            
    319000   69.175649      16.974914      5            
    320000   87.734857      21.521303      7            
    321000   89.169777      21.881645      4            
    322000   54.187216      13.296294      4            
    323000   33.367008      8.1868534      4            
    324000   32.853251      8.0601635      4            
    325000   43.170802      10.594111      4            
    326000   53.168805      12.982547      4            
    327000   74.498468      18.163687      5            
    328000   61.615942      15.104964      5            
    329000   37.527932      9.1659368      4            
    330000   41.589896      10.203341      5            
    331000   37.305069      9.153299       3            
    332000   29.515964      7.2421782      3            
    333000   83.476703      20.48006       5            
    334000   153.11465      37.001129      7            
    335000   53.812138      13.203579      5            
    336000   33.94417       8.3286002      3            
    337000   66.752655      16.380768      3            
    338000   35.562541      8.7251366      4            
    339000   73.487497      18.032154      5            
    340000   9.8868121      2.425835       1            
    341000   92.521082      22.689715      7            
    342000   52.85032       12.968833      3            
    343000   92.32393       22.258759      8            
    344000   16.898033      4.1457823      3            
    345000   48.284682      11.848167      3            
    346000   146.12243      35.865741      6            
    347000   35.248703      8.6495213      2            
    348000   50.971239      12.505815      4            
    349000   35.966709      8.8253413      3            
    350000   6.6651775      1.6351825      1            
    351000   79.417585      19.491018      5            
    352000   12.287096      3.0149137      1            
    353000   75.263491      18.46701       6            
    354000   39.612764      9.7186412      4            
    355000   2.5859281      0.63405361     1            
    356000   72.529822      17.787901      5            
    357000   115.15546      28.224311      6            
    358000   147.20481      36.120808      7            
    359000   28.702883      7.0359511      3            
    360000   79.986284      19.596174      6            
    361000   27.747138      6.806943       5            
    362000   23.74433       5.8244625      5            
    363000   33.709866      8.2711082      3            
    364000   33.192354      8.1436856      3            
    365000   84.510579      20.738135      6            
    366000   99.161791      24.333077      6            
    367000   67.481868      16.55226       6            
    368000   122.35467      29.973606      7            
    369000   63.833755      15.663487      3            
    370000   65.422748      16.056224      5            
    371000   3.4520098      0.84573501     3            
    372000   67.627168      16.592848      6            
    373000   30.105777      7.3879749      1            
    374000   50.638503      12.421768      5            
    375000   11.004208      2.7000685      1            
    376000   33.60936       8.2464613      4            
    377000   22.817804      5.5985957      3            
    378000   36.369576      8.9239215      3            
    379000   28.653413      7.0303121      3            
    380000   33.483784      8.216303       2            
    381000   56.054435      13.753585      3            
    382000   21.448391      5.2626194      2            
    383000   57.833144      14.18979       5            
    384000   76.580024      18.784749      4            
    385000   10.817302      2.6536229      2            
    386000   103.07484      25.290979      5            
    387000   25.647058      6.2918309      4            
    388000   55.265765      13.561022      4            
    389000   1.2209463      0.29905879     1            
    390000   15.142326      3.7150159      2            
    391000   3.0275871      0.74244534     1            
    392000   64.135001      15.51446       2            
    393000   34.893925      8.5615533      4            
    394000   48.418375      11.871576      6            
    395000   31.951819      7.8392758      3            
    396000   196.17342      48.115888      9            
    397000   43.614664      10.701911      5            
    398000   40.279395      9.8833806      4            
    399000   45.443783      11.150841      3            
    400000   87.303118      21.422126      7            
    401000   31.19021       7.6529004      3            
    402000   13.577157      3.3308924      2            
    403000   31.512849      7.7311576      4            
    404000   18.628243      4.5692358      4            
    405000   9.3018804      2.2816649      2            
    406000   17.471681      4.28625        2            
    407000   36.324282      8.9131415      5            
    408000   145.99495      35.691367      6            
    409000   62.138789      15.156402      7            
    410000   23.810538      5.8418221      5            
    411000   71.121522      17.229866      5            
    412000   149.87712      36.773766      7            
    413000   117.77892      28.901316      6            
    414000   71.62621       17.577221      5            
    415000   182.34559      44.728465      5            
    416000   6.4784879      1.5887689      2            
    417000   45.150978      11.07932       3            
    418000   58.779388      14.42148       5            
    419000   126.24009      30.960491      9            
    420000   36.832174      9.0376108      3            
    421000   38.104171      9.3503582      2            
    422000   111.00562      27.230591      6            
    423000   75.011843      18.407424      4            
    424000   15.753782      3.8655617      2            
    425000   71.216667      17.475867      5            
    426000   11.881935      2.9154784      1            
    427000   20.418077      5.0093737      3            
    428000   27.310383      6.7019294      1            
    429000   67.653439      16.584985      7            
    430000   52.39672       12.858618      1            
    431000   136.59302      32.742915      5            
    432000   32.913522      8.075898       3            
    433000   40.147119      9.8523446      6            
    434000   69.73382       17.102649      6            
    435000   28.566446      7.0058017      3            
    436000   59.221999      14.377632      5            
    437000   57.384361      14.08196       2            
    438000   61.853141      15.154599      4            
    439000   93.969453      23.019595      6            
    440000   17.445912      4.2807179      3            
    441000   48.416871      11.879318      4            
    442000   74.093923      18.075075      9            
    443000   133.45525      32.480057      7            
    444000   81.462634      19.989892      4            
    445000   38.281525      9.3927092      4            
    446000   77.087087      18.916381      5            
    447000   91.368367      22.413551      4            
    448000   36.773403      9.0228987      3            
    449000   13.328929      3.2700006      2            
    450000   194.02288      46.763857      9            
    451000   80.050889      19.642824      5            
    452000   39.228312      9.6321123      4            
    453000   56.214938      13.791144      5            
    454000   46.501806      11.416582      3            
    455000   52.727321      12.939229      2            
    456000   12.192019      2.9903695      3            
    457000   70.871423      17.381014      6            
    458000   73.3165        17.991519      3            
    459000   143.90221      35.287863      6            
    460000   5.0627335      1.2419116      1            
    461000   24.921182      6.1149438      2            
    462000   37.659928      9.240791       3            
    463000   3.0901456      0.75779918     1            
    464000   93.923147      23.032495      2            
    465000   17.910071      4.3942865      2            
    466000   63.286572      15.532859      5            
    467000   86.069892      21.120813      5            
    468000   81.442844      19.989997      5            
    469000   104.04219      25.527921      8            
    470000   49.763369      12.21082       4            
    471000   3.3647349      0.82518875     1            
    472000   73.91585       18.088479      5            
    473000   96.491941      23.659558      7            
    474000   18.927698      4.6435888      3            
    475000   24.615941      6.0399607      3            
    476000   21.652608      5.3123943      3            
    477000   92.330171      22.648846      6            
    478000   56.926467      13.969036      3            
    479000   10.420379      2.5567841      1            
    480000   18.617273      4.5678956      2            
    481000   53.328416      13.083348      5            
    482000   106.21801      26.054086      7            
    483000   141.59399      34.298286      5            
    484000   41.817118      10.261559      2            
    485000   87.597146      21.497508      1            
    486000   69.08098       16.951526      4            
    487000   175.58868      42.176774      7            
    488000   136.8081       33.574345      8            
    489000   26.767249      6.5675233      2            
    490000   67.294196      16.513495      6            
    491000   102.91796      25.254985      5            
    492000   25.646494      6.2929894      2            
    493000   77.027867      18.723864      8            
    494000   49.22998       12.07966       4            
    495000   25.544241      6.2676653      2            
    496000   50.901796      12.490473      4            
    497000   37.996948      9.3225516      4            
    498000   146.53127      35.007663      7            
    499000   34.528812      8.4561813      6            
    500000   74.492326      18.280778      2            
    501000   6.9597075      1.7068491      2            
    502000   55.565174      13.633082      6            
    503000   65.3347        15.872337      7            
    504000   23.431488      5.7486947      3            
    505000   21.401749      5.2505011      3            
    506000   16.530819      4.0557929      2            
    507000   66.088008      16.21885       4            
    508000   177.81949      43.171728      9            
    509000   7.1351298      1.7495456      3            
    510000   154.66701      37.919581      7            
    511000   143.40228      35.189952      6            
    512000   91.058669      22.343561      7            
    513000   73.211631      17.967152      5            
    514000   17.603401      4.3190859      2            
    515000   12.765117      3.1315814      2            
    516000   75.771543      18.591973      6            
    517000   64.221901      15.757945      6            
    518000   29.422         7.2195391      2            
    519000   36.945961      9.0642917      5            
    520000   9.5693181      2.3479158      1            
    521000   125.68899      30.843438      4            
    522000   64.786437      15.870733      6            
    523000   113.97273      27.966463      5            
    524000   43.504481      10.675696      2            
    525000   45.231019      11.098901      3            
    526000   58.44163       13.381853      7            
    527000   32.359067      7.9391941      4            
    528000   19.927228      4.8886835      3            
    529000   116.65165      28.623676      7            
    530000   20.520345      5.0324223      3            
    531000   29.955751      7.3481529      3            
    532000   58.935029      14.462673      2            
    533000   20.831142      5.1030961      3            
    534000   14.759022      3.6203293      3            
    535000   56.831983      13.945434      4            
    536000   50.984236      12.51244       5            
    537000   39.29617       9.6429087      2            
    538000   29.261247      7.179416       3            
    539000   8.0582958      1.9765509      2            
    540000   103.66262      25.419652      9            
    541000   56.907713      13.964021      4            
    542000   29.967267      7.3528827      3            
    543000   64.459921      15.770376      7            
    544000   4.5572462      1.1157793      3            
    545000   85.635712      20.619796      8            
    546000   85.99254       21.102162      4            
    547000   12.620827      3.0962126      2            
    548000   75.045723      18.41239       5            
    549000   175.20956      42.995999      7            
    550000   11.624647      2.8512295      3            
    551000   30.692288      7.523435       3            
    552000   42.24728       10.364818      3            
    553000   36.467119      8.9464602      6            
    554000   7.1761343      1.760581       1            
    555000   17.743005      4.3551148      3            
    556000   30.147079      7.3975064      2            
    557000   70.383379      17.270689      5            
    558000   72.045603      17.676274      5            
    559000   56.536025      13.873374      3            
    560000   49.746396      11.537265      5            
    561000   40.377164      9.0717227      4            
    562000   32.692466      8.0222404      2            
    563000   47.521263      11.638741      6            
    564000   123.2738       30.246598      7            
    565000   54.342732      13.333087      4            
    566000   19.407952      4.761472       3            
    567000   89.446798      21.949129      8            
    568000   47.420863      11.635783      4            
    569000   66.034446      16.201487      6            
    570000   52.357783      12.846588      3            
    571000   59.417646      14.579729      5            
    572000   39.075021      9.5892083      1            
    573000   65.891381      16.166729      6            
    574000   25.14133       6.1690052      2            
    575000   25.312792      6.2106856      3            
    576000   20.244005      4.9676992      1            
    577000   39.588049      9.7157261      4            
    578000   35.034339      8.5967289      4            
    579000   49.733034      12.202959      4            
    580000   7.8326936      1.9209412      2            
    581000   36.652341      8.9933893      3            
    582000   35.387788      8.6830491      3            
    583000   71.309889      17.45362       8            
    584000   18.613178      4.567461       1            
    585000   54.409146      13.050143      7            
    586000   4.5696991      1.120909       1            
    587000   18.073519      4.4350182      1            
    588000   8.5933708      2.1083987      1            
    589000   21.39749       5.2507869      1            
    590000   13.372455      3.2808481      2            
    591000   75.645814      17.84491       6            
    592000   16.990813      4.1687441      2            
    593000   79.768251      19.571979      6            
    594000   37.689415      9.2485412      2            
    595000   190.96455      46.761753      11           
    596000   101.57213      24.924247      5            
    597000   17.321632      3.5880953      3            
    598000   15.775051      3.8709288      1            
    599000   13.821321      3.3906344      2            
    600000   39.257632      9.6213028      6            
    601000   35.307452      8.668227       5            
    602000   34.516235      8.4641546      4            
    603000   72.382479      17.757964      7            
    604000   46.445112      11.396787      5            
    605000   106.08642      25.909234      9            
    606000   31.016901      7.6096355      4            
    607000   58.747806      14.409314      4            
    608000   53.589046      13.149195      5            
    609000   48.662822      11.937794      6            
    610000   32.57753       7.9876992      5            
    611000   52.868804      12.968846      6            
    612000   65.178571      15.98644       5            
    613000   66.801756      16.390742      4            
    614000   117.3943       28.614618      5            
    615000   113.96834      27.868099      9            
    616000   35.30079       8.6613902      4            
    617000   68.39776       16.783508      4            
    618000   77.307876      18.970773      4            
    619000   3.9905061      0.97876398     1            
    620000   59.198505      14.52316       6            
    621000   63.898309      15.67698       5            
    622000   52.009713      12.755155      4            
    623000   106.80636      26.209165      5            
    624000   78.805407      19.338094      4            
    625000   157.50199      38.652821      2            
    626000   15.48921       3.7997142      3            
    627000   58.742343      14.41574       5            
    628000   27.419194      6.7280575      2            
    629000   74.64364       18.317422      4            
    630000   14.010636      3.4324921      4            
    631000   31.389064      7.7017538      3            
    632000   117.7147       28.888572      8            
    633000   51.082949      12.532807      5            
    634000   40.41571       9.916547       4            
    635000   77.225439      18.830754      4            
    636000   46.766424      11.473634      5            
    637000   35.770104      8.7765955      4            
    638000   9.0481045      2.2202188      2            
    639000   59.428598      14.579508      8            
    640000   24.653114      6.0490447      3            
    641000   54.288986      13.321117      4            
    642000   124.4642       30.540509      5            
    643000   49.644043      12.181363      4            
    644000   32.930355      8.0805909      2            
    645000   30.145159      7.3958867      4            
    646000   29.74107       7.2965821      4            
    647000   43.618209      10.704488      4            
    648000   0.89462966     0.21897368     1            
    649000   54.12297       13.274107      6            
    650000   49.960437      12.2584        6            
    651000   37.894292      9.2983352      3            
    652000   33.159526      8.1374257      1            
    653000   21.610406      5.2925393      5            
    654000   88.533701      21.724339      7            
    655000   5.2871065      1.29652        2            
    656000   58.935216      14.462115      3            
    657000   83.622181      20.519711      5            
    658000   60.156184      14.760783      4            
    659000   46.389032      11.383643      2            
    660000   49.973166      12.262639      3            
    661000   80.122209      19.664319      6            
    662000   54.426247      13.354855      4            
    663000   59.374421      14.527195      7            
    664000   52.217004      12.812538      5            
    665000   15.178938      3.7246301      1            
    666000   95.470106      23.429362      2            
    667000   111.88435      27.448402      9            
    668000   104.08426      25.542587      3            
    669000   51.004493      12.446747      7            
    670000   86.900054      21.327042      5            
    671000   137.58162      33.752075      11           
    672000   24.759649      6.0756284      2            
    673000   0.50061434     0.12227427     1            
    674000   107.37443      26.340506      6            
    675000   172.48822      42.323593      5            
    676000   71.058803      17.438151      6            
    677000   80.357431      19.718546      4            
    678000   33.400597      8.1948981      4            
    679000   71.218856      17.476235      4            
    680000   39.777701      9.7610178      2            
    681000   84.425921      20.416388      6            
    682000   54.93402       13.479578      6            
    683000   31.943401      7.8378375      3            
    684000   24.458237      5.9999482      3            
    685000   81.399738      19.70553       5            
    686000   107.48276      26.35183       8            
    687000   42.557103      10.43628       3            
    688000   92.690699      22.745391      5            
    689000   40.356829      9.9029675      3            
    690000   44.846847      11.004032      4            
    691000   68.209775      16.713422      5            
    692000   66.456533      16.299919      5            
    693000   13.398686      3.2863958      3            
    694000   97.92185       24.030804      2            
    695000   10.275832      2.5207428      2            
    696000   24.233879      5.9457675      3            
    697000   5.9770792      1.4650888      3            
    698000   78.699107      19.28896       6            
    699000   99.457507      24.397396      8            
    700000   101.92329      24.794331      6            
    701000   100.2709       24.605657      5            
    702000   79.459202      19.50279       4            
    703000   38.66401       9.4860877      4            
    704000   9.2444176      2.2676212      2            
    705000   53.275579      13.072225      6            
    706000   44.312976      10.840318      5            
    707000   43.472941      10.667936      2            
    708000   34.316377      8.4201856      3            
    709000   74.997886      18.39728       4            
    710000   118.8162       29.157193      4            
    711000   105.45678      25.877107      6            
    712000   63.105318      15.486236      2            
    713000   20.214859      4.959982       2            
    714000   35.498976      8.6735076      5            
    715000   167.26425      41.047742      4            
    716000   22.415366      5.4980644      5            
    717000   63.105957      15.47871       5            
    718000   43.293279      10.623874      2            
    719000   137.52926      33.745877      5            
    720000   63.046298      15.469438      5            
    721000   59.654594      14.636584      5            
    722000   68.796019      16.881303      3            
    723000   110.00856      26.986971      8            
    724000   88.063413      21.610127      4            
    725000   62.339168      15.297426      3            
    726000   15.09458       3.6908105      3            
    727000   103.19141      25.322328      7            
    728000   69.086684      16.950687      4            
    729000   41.513957      10.173403      5            
    730000   35.650649      8.7482292      2            
    731000   36.049592      8.8467062      1            
    732000   45.170031      11.082967      4            
    733000   78.109235      19.166898      7            
    734000   77.90986       19.08434       5            
    735000   19.142589      4.6964464      3            
    736000   70.259993      17.233981      7            
    737000   30.558558      7.4979244      3            
    738000   85.017641      20.843723      6            
    739000   77.750074      19.05397       5            
    740000   32.021334      7.8574667      2            
    741000   65.583817      16.094368      2            
    742000   89.492194      21.96306       4            
    743000   19.718493      4.8387267      1            
    744000   83.920545      20.593828      4            
    745000   103.41974      25.377682      7            
    746000   49.640464      12.180999      3            
    747000   74.746777      18.345644      5            
    748000   76.546826      18.77976       2            
    749000   20.48691       5.0267636      2            
    750000   89.348118      21.92055       7            
    751000   3.8188012      0.93610155     2            
    752000   127.5876       30.647637      6            
    753000   62.866721      15.424564      4            
    754000   15.954846      3.9145038      2            
    755000   65.181351      15.600877      5            
    756000   37.926437      9.3062117      3            
    757000   40.939511      10.046281      2            
    758000   45.297293      11.114712      4            
    759000   104.01956      25.525658      7            
    760000   140.53696      34.221359      8            
    761000   81.368423      19.968557      4            
    762000   36.414657      8.9342151      4            
    763000   124.31467      30.488484      6            
    764000   106.16794      26.05251       5            
    765000   35.8667        8.7999277      4            
    766000   29.268073      7.1814011      3            
    767000   10.761097      2.6238023      3            
    768000   28.057844      6.8835913      4            
    769000   67.094215      16.462205      4            
    770000   39.697834      9.7414273      2            
    771000   31.649393      7.7657359      3            
    772000   98.453302      24.158277      5            
    773000   110.41147      27.095352      6            
    774000   64.719796      15.881183      4            
    775000   77.1581        18.933669      6            
    776000   43.3921        10.647533      3            
    777000   55.863054      13.707914      4            
    778000   61.828297      15.171703      4            
    779000   27.402694      6.7233487      3            
    780000   103.69553      25.447412      5            
    781000   51.326249      12.585696      5            
    782000   5.7334098      1.4056645      3            
    783000   140.0441       34.363418      6            
    784000   30.623554      7.5081316      5            
    785000   45.203253      11.092007      3            
    786000   14.424687      3.5382072      2            
    787000   39.922194      9.77083        4            
    788000   123.50426      30.300639      6            
    789000   66.202211      16.244351      4            
    790000   96.49128       23.678377      4            
    791000   23.042954      5.654008       2            
    792000   39.803002      9.7667291      5            
    793000   3.8726475      0.94984        1            
    794000   36.912254      9.0566755      4            
    795000   17.566189      4.3094738      4            
    796000   98.863508      24.259845      5            
    797000   46.600315      11.43527       3            
    798000   83.909826      20.590102      5            
    799000   55.937337      13.725703      4            
    800000   42.48247       10.421242      4            
    801000   111.2668       27.122425      6            
    802000   98.479428      23.673963      6            
    803000   160.71346      39.439113      7            
    804000   45.679262      11.207566      5            
    805000   105.47885      25.878207      7            
    806000   49.123562      12.047846      5            
    807000   90.366198      22.173216      6            
    808000   22.13511       5.430526       5            
    809000   127.7135       31.34113       4            
    810000   67.870084      16.6531        6            
    811000   31.625629      7.7609768      1            
    812000   64.669865      15.806345      4            
    813000   17.326348      4.2510849      2            
    814000   34.414767      8.4449003      2            
    815000   48.336692      11.859071      6            
    816000   109.35567      26.831871      8            
    817000   104.36275      25.604705      7            
    818000   146.59926      35.971706      7            
    819000   25.582696      6.2773574      2            
    820000   120.38859      29.474058      7            
    821000   139.76727      34.278328      7            
    822000   42.891376      10.525243      2            
    823000   32.758804      8.0387826      2            
    824000   104.94429      25.752448      7            
    825000   40.269977      9.8814473      3            
    826000   5.6109348      1.3360634      2            
    827000   21.020527      5.1571378      3            
    828000   119.2366       28.255206      8            
    829000   11.619789      2.8506278      2            
    830000   53.317627      13.083621      3            
    831000   37.36174       9.0242162      3            
    832000   30.996452      7.5495299      4            
    833000   86.609134      21.253085      4            
    834000   29.807383      7.3122724      5            
    835000   56.718113      13.917585      4            
    836000   26.756543      6.5634848      4            
    837000   24.904911      6.1103404      3            
    838000   29.84356       7.3229714      2            
    839000   114.54518      28.097333      3            
    840000   58.088384      14.254256      3            
    841000   3.8025659      0.93264062     1            
    842000   55.868864      13.708799      5            
    843000   23.757024      5.6963654      3            
    844000   156.31513      38.332457      10           
    845000   36.555973      8.9696424      3            
    846000   35.364785      8.6774109      3            
    847000   45.362314      11.131095      3            
    848000   87.218064      21.333087      4            
    849000   42.696648      10.476409      4            
    850000   120.89204      29.64626       8            
    851000   22.243438      5.4500119      4            
    852000   91.641991      22.481287      7            
    853000   40.365402      9.904624       4            
    854000   81.777556      20.063953      6            
    855000   53.550671      13.139465      7            
    856000   36.399544      8.9330964      4            
    857000   1.8575867      0.45530277     1            
    858000   82.596158      20.26839       4            
    859000   63.730554      15.639598      2            
    860000   45.426331      11.146815      4            
    861000   96.816824      23.756809      6            
    862000   38.530301      9.4543393      3            
    863000   15.585638      3.8199085      4            
    864000   73.717784      18.087856      4            
    865000   6.1072067      1.4982461      1            
    866000   25.264091      6.1990858      2            
    867000   56.435631      13.848675      3            
    868000   125.16655      30.706517      11           
    869000   74.708726      18.332643      4            
    870000   88.087608      21.613496      6            
    871000   127.60497      31.314423      6            
    872000   15.17319       3.5520878      4            
    873000   130.96389      32.139377      3            
    874000   88.690886      21.691702      9            
    875000   97.906708      23.203732      8            
    876000   147.79415      36.267892      6            
    877000   5.855878       1.4365639      1            
    878000   35.397959      8.6366127      5            
    879000   49.653271      12.183548      4            
    880000   30.738032      7.5420219      3            
    881000   56.364882      13.830607      4            
    882000   69.989537      17.175157      4            
    883000   79.021365      19.38627       5            
    884000   35.17021       8.6293138      4            
    885000   36.991323      9.075402       5            
    886000   60.716405      14.898936      4            
    887000   20.670452      5.0717238      2            
    888000   43.462975      10.663237      5            
    889000   59.651254      14.636256      6            
    890000   144.32162      34.905227      10           
    891000   9.5094178      2.3326808      2            
    892000   13.50057       3.3120853      2            
    893000   74.409018      18.203901      5            
    894000   143.6547       35.250566      6            
    895000   61.316835      15.045794      5            
    896000   52.472122      12.871922      6            
    897000   191.8317       47.074701      8            
    898000   49.57424       12.163548      5            
    899000   45.20864       11.093339      3            
    900000   32.541084      7.9842927      4            
    901000   51.634896      12.66103       3            
    902000   57.156356      14.026161      2            
    903000   56.299329      13.812968      6            
    904000   23.726339      5.8217427      2            
    905000   54.910806      13.475079      2            
    906000   21.37122       5.2431047      3            
    907000   66.322432      16.263005      4            
    908000   24.190993      5.9360072      2            
    909000   25.576317      6.2751271      3            
    910000   46.34436       10.948744      6            
    911000   74.581292      17.615316      8            
    912000   87.176029      21.38831       5            
    913000   26.034002      6.3864818      4            
    914000   25.513139      6.2409414      6            
    915000   41.048343      10.071923      3            
    916000   48.494748      11.899705      3            
    917000   33.372476      8.1891339      2            
    918000   40.645382      9.9732677      3            
    919000   89.367398      21.929546      5            
    920000   108.33575      26.584141      5            
    921000   13.309169      3.2662205      4            
    922000   70.11908       16.563446      9            
    923000   97.375733      23.887581      4            
    924000   8.4620091      2.0755049      2            
    925000   50.59389       12.414536      3            
    926000   22.659806      5.5587966      4            
    927000   80.555381      19.762484      4            
    928000   88.962378      21.812084      6            
    929000   116.5846       28.603073      8            
    930000   38.68176       9.4913568      3            
    931000   39.964463      9.8104443      4            
    932000   110.07754      26.997078      7            
    933000   81.733881      20.058235      2            
    934000   38.114211      9.3528182      2            
    935000   34.476645      8.4600613      2            
    936000   67.23161       16.498366      3            
    937000   32.146755      7.8871419      3            
    938000   2.9467764      0.72261192     1            
    939000   20.751989      5.0918151      2            
    940000   179.95511      44.162882      3            
    941000   156.77847      38.356729      8            
    942000   21.03177       5.1594449      3            
    943000   59.130972      14.499133      8            
    944000   97.471131      23.912062      4            
    945000   39.154243      9.6069152      4            
    946000   23.075644      5.6607852      3            
    947000   1.7723301      0.43437984     1            
    948000   50.973022      12.508707      4            
    949000   148.10761      36.346384      6            
    950000   30.098942      7.3862974      1            
    951000   69.989571      17.174224      4            
    952000   63.945927      15.691115      5            
    953000   39.240476      9.6266376      5            
    954000   15.368137      3.7710632      1            
    955000   110.35233      27.081148      3            
    956000   70.186057      17.223228      4            
    957000   50.479838      12.387958      3            
    958000   62.455188      15.325868      3            
    959000   60.397015      14.819346      5            
    960000   62.79438       15.405731      6            
    961000   157.59977      38.457868      6            
    962000   106.43844      26.118532      7            
    963000   119.87407      29.416647      7            
    964000   78.752541      19.324845      4            
    965000   90.767019      22.218643      7            
    966000   40.543077      9.9483378      3            
    967000   49.962375      12.263202      3            
    968000   9.1560166      2.2464836      1            
    969000   23.216429      5.6965636      2            
    970000   148.15255      36.35742       4            
    971000   91.142038      22.367495      1            
    972000   19.184483      4.7076696      1            
    973000   98.528774      24.179243      3            
    974000   79.735195      19.566255      5            
    975000   33.837866      8.3028766      3            
    976000   20.925826      5.1342785      2            
    977000   123.55566      30.320634      4            
    978000   22.041912      5.4089406      1            
    979000   47.506232      11.656869      5            
    980000   94.559287      22.517998      6            
    981000   10.519226      2.5810422      1            
    982000   70.838568      17.383381      3            
    983000   35.018286      8.5926174      3            
    984000   47.26752       11.598883      3            
    985000   32.831901      8.0558611      3            
    986000   68.818368      16.814039      8            
    987000   31.068434      7.5535418      5            
    988000   22.199694      5.4476629      1            
    989000   64.399668      15.802733      5            
    990000   43.131516      10.583251      4            
    991000   154.25285      37.841418      6            
    992000   20.247415      4.9671639      3            
    993000   48.538804      11.909888      5            
    994000   72.654961      17.830165      7            
    995000   36.24508       8.8936336      3            
    996000   70.031905      16.765434      5            
    997000   30.038463      7.3704414      3            
    998000   29.387466      7.2116869      1            
    999000   59.969558      14.715124      4            
   1000000   20.309362      4.9832255      2            
   1001000   21.813278      5.3499136      5            
   1002000   68.156936      16.72268       5            
   1003000   80.562953      19.77007       3            
   1004000   88.519708      21.720833      6            
   1005000   112.51809      27.611127      8            
   1006000   39.177703      9.6116334      6            
   1007000   42.96966       9.6728938      5            
   1008000   115.8835       28.439023      8            
   1009000   70.945125      17.40383       7            
   1010000   95.121827      23.34198       5            
   1011000   27.349881      6.69263        5            
   1012000   40.530531      9.9385895      5            
   1013000   11.035326      2.7066857      3            
   1014000   10.432652      2.4861453      3            
   1015000   97.856114      24.011863      8            
   1016000   63.413503      15.548234      7            
   1017000   52.078316      12.778531      4            
   1018000   99.896084      24.514378      4            
   1019000   90.906658      22.303616      4            
   1020000   33.898614      8.3168599      3            
   1021000   28.414396      6.9717118      3            
   1022000   32.542473      7.983384       4            
   1023000   76.344712      18.73313       5            
   1024000   71.503741      17.241468      7            
   1025000   83.521701      20.495277      5            
   1026000   53.997953      12.942411      9            
   1027000   54.517501      13.376117      4            
   1028000   10.146917      2.4885173      3            
   1029000   40.216123      9.8672048      3            
   1030000   23.940743      5.8753488      3            
   1031000   53.395728      13.109022      5            
   1032000   33.535053      8.2286708      3            
   1033000   33.656175      8.2574307      4            
   1034000   70.844232      17.383517      6            
   1035000   27.571394      6.7648621      3            
   1036000   44.406414      10.896293      2            
   1037000   25.14195       6.167765       4            
   1038000   25.636004      6.2903419      2            
   1039000   9.2188845      2.2613082      2            
   1040000   39.828547      9.7660816      6            
   1041000   28.364621      6.9446151      5            
   1042000   45.633597      11.190351      4            
   1043000   134.3595       32.962675      9            
   1044000   1.5595676      0.38139157     2            
   1045000   33.81749       8.2977248      3            
   1046000   33.25512       8.1601931      2            
   1047000   30.320893      7.4399408      3            
   1048000   193.36236      47.452465      4            
   1049000   47.765788      11.721188      3            
   1050000   133.97857      32.872673      6            
   1051000   175.34171      43.023912      7            
   1052000   9.4986666      2.3305775      1            
   1053000   22.359033      5.4867686      1            
   1054000   159.89257      39.237541      7            
   1055000   56.563943      13.878841      6            
   1056000   51.436307      12.622338      2            
   1057000   117.79268      28.900482      8            
   1058000   72.825151      17.755123      6            
   1059000   32.411843      7.9499721      4            
   1060000   13.693488      3.3533668      2            
   1061000   65.050048      15.962641      3            
   1062000   66.599874      16.342082      5            
   1063000   24.215517      5.9423863      1            
   1064000   45.527621      11.172805      1            
   1065000   81.076471      19.89587       6            
   1066000   90.234356      22.140905      6            
   1067000   44.308102      10.871874      4            
   1068000   23.633946      5.7958232      4            
   1069000   135.71681      33.297922      6            
   1070000   20.47532       5.0232952      3            
   1071000   6.0834115      1.4924051      1            
   1072000   57.931967      14.218452      2            
   1073000   40.61236       9.7284707      4            
   1074000   22.48346       5.4998696      3            
   1075000   45.486321      11.161198      3            
   1076000   65.080122      15.961994      4            
   1077000   79.663881      19.550893      4            
   1078000   63.515241      15.585923      3            
   1079000   72.169347      17.682847      6            
   1080000   90.102477      22.106071      6            
   1081000   100.31189      24.610204      8            
   1082000   36.046968      8.8449495      4            
   1083000   15.339512      3.7633961      2            
   1084000   27.394408      6.7219579      2            
   1085000   29.532557      7.2467082      2            
   1086000   130.71332      31.997579      9            
   1087000   78.149424      19.175546      5            
   1088000   17.017037      4.1751193      2            
   1089000   125.14238      30.707766      5            
   1090000   27.096677      6.6482267      3            
   1091000   73.577831      18.05336       5            
   1092000   87.853512      21.557254      6            
   1093000   87.968493      21.388001      10           
   1094000   1.7978734      0.44064856     1            
   1095000   110.43587      27.098923      7            
   1096000   90.808732      22.281485      5            
   1097000   28.71167       7.0434755      4            
   1098000   9.565692       2.3470267      1            
   1099000   50.233048      12.311792      6            
   1100000   44.133592      10.821943      4            
   1101000   16.395069      4.0164137      4            
   1102000   71.568052      17.562449      5            
   1103000   33.177002      8.1406573      3            
   1104000   104.87871      25.256105      8            
   1105000   49.254486      12.086032      4            
   1106000   42.744383      10.488545      3            
   1107000   110.60542      27.105631      8            
   1108000   133.96731      32.679748      6            
   1109000   75.969338      18.638878      6            
   1110000   137.89822      33.841238      6            
   1111000   39.833372      9.7750147      4            
   1112000   16.103732      3.9515916      1            
   1113000   77.852844      19.103244      7            
   1114000   153.47725      37.945388      8            
   1115000   73.50392       18.038275      3            
   1116000   107.19342      26.303625      5            
   1117000   66.927823      16.422629      4            
   1118000   99.284501      24.343509      5            
   1119000   84.495494      20.733933      4            
   1120000   42.545619      10.439391      4            
   1121000   30.035585      7.3696176      3            
   1122000   39.727057      9.7469526      4            
   1123000   10.680328      2.6199859      2            
   1124000   41.51768       10.187534      4            
   1125000   85.387107      20.952825      5            
   1126000   77.967279      19.09181       2            
   1127000   40.889647      9.6855601      5            
   1128000   28.175885      6.9137003      2            
   1129000   28.053153      6.8836236      2            
   1130000   87.101081      21.364258      7            
   1131000   179.23895      43.977905      7            
   1132000   110.20415      27.042984      7            
   1133000   25.570591      6.273844       3            
   1134000   80.064539      19.646803      5            
   1135000   115.40641      28.258839      5            
   1136000   1.1793407      0.28884787     1            
   1137000   8.7268105      2.1411485      1            
   1138000   17.045701      4.1827697      1            
   1139000   24.919232      6.1130463      3            
   1140000   86.50056       21.22211       5            
   1141000   18.320497      4.4950705      2            
   1142000   27.901478      6.8458583      3            
   1143000   58.825332      13.921972      6            
   1144000   107.1474       26.115907      8            
   1145000   27.055893      6.6382537      3            
   1146000   84.752677      20.791194      5            
   1147000   30.296872      7.4286636      4            
   1148000   110.59901      27.141454      4            
   1149000   19.156421      4.6993722      3            
   1150000   54.849171      13.454995      5            
   1151000   23.759504      5.8194964      4            
   1152000   48.055072      11.793092      1            
   1153000   74.50968       18.28354       4            
   1154000   11.12403       2.7294745      1            
   1155000   51.101501      12.316743      5            
   1156000   8.0696284      1.9798618      1            
   1157000   82.271154      20.17842       7            
   1158000   49.2783        12.088654      5            
   1159000   76.498737      18.769029      3            
   1160000   56.753372      13.926515      3            
   1161000   23.362969      5.7331558      1            
   1162000   165.55503      40.627178      6            
   1163000   75.355563      18.188154      8            
   1164000   31.161463      7.6385333      3            
   1165000   47.863998      11.743781      5            
   1166000   102.2986       25.103695      4            
   1167000   35.377925      8.6821128      4            
   1168000   63.98263       15.700198      4            
   1169000   42.126335      10.326487      6            
   1170000   140.96435      34.589378      6            
   1171000   128.49891      31.534402      3            
   1172000   43.088394      10.573528      2            
   1173000   88.178078      21.622777      6            
   1174000   36.936682      9.0633127      5            
   1175000   46.937708      11.518298      2            
   1176000   11.253924      2.7607482      2            
   1177000   63.647944      15.617944      4            
   1178000   35.878707      8.7972546      4            
   1179000   202.92955      49.230373      8            
   1180000   146.90798      36.0459        7            
   1181000   45.728567      11.220904      3            
   1182000   159.71075      39.192785      6            
   1183000   37.166648      9.1208553      1            
   1184000   50.499942      12.387078      5            
   1185000   64.022225      15.706805      4            
   1186000   23.002756      5.644189       2            
   1187000   29.965291      7.3521663      3            
   1188000   26.772         6.5659136      4            
   1189000   55.866054      13.696129      7            
   1190000   45.503492      11.164355      4            
   1191000   57.859267      14.197445      6            
   1192000   72.506207      17.792082      4            
   1193000   40.10232       9.8406722      2            
   1194000   71.618305      17.574842      3            
   1195000   16.526829      4.0542676      3            
   1196000   67.661095      16.602044      5            
   1197000   48.803007      11.974576      4            
   1198000   74.857783      18.368347      5            
   1199000   4.9003323      1.2010916      2            
   1200000   71.110648      17.449735      4            
   1201000   24.466635      6.0026769      4            
   1202000   54.744444      13.422868      6            
   1203000   31.302059      7.6803622      3            
   1204000   127.17251      31.119648      6            
   1205000   18.940102      4.6461396      4            
   1206000   60.417736      14.825599      4            
   1207000   26.654192      6.5400853      4            
   1208000   136.72149      33.536959      5            
   1209000   92.516614      22.702962      4            
   1210000   45.480319      11.158833      5            
   1211000   34.359246      8.4312719      2            
   1212000   104.89083      25.734262      8            
   1213000   21.062941      5.1669187      3            
   1214000   91.323405      22.065099      7            
   1215000   50.73941       12.361881      5            
   1216000   10.975391      2.6924017      2            
   1217000   26.916408      6.6046357      2            
   1218000   53.212905      13.056732      4            
   1219000   71.825102      17.615974      5            
   1220000   17.307199      4.246947       1            
   1221000   80.288966      19.697013      8            
   1222000   68.586664      16.831462      4            
   1223000   10.901052      2.6747508      1            
   1224000   47.84043       11.029302      5            
   1225000   34.910159      8.5654319      4            
   1226000   25.931237      6.3255197      3            
   1227000   121.50561      29.80708       8            
   1228000   42.951593      10.539046      3            
   1229000   46.369488      11.378079      3            
   1230000   14.009556      3.4369987      2            
   1231000   56.168777      13.782843      4            
   1232000   46.914918      11.511302      4            
   1233000   123.25728      30.222748      5            
   1234000   33.053224      8.1091115      3            
   1235000   25.901996      6.3561903      5            
   1236000   27.794252      6.8185563      4            
   1237000   20.227713      4.9630822      2            
   1238000   43.378621      10.64278       6            
   1239000   45.286662      11.112605      3            
   1240000   43.298365      10.625959      5            
   1241000   24.966049      6.1255131      2            
   1242000   8.7535984      2.1477221      1            
   1243000   130.75722      32.089306      2            
   1244000   15.657083      3.84145        2            
   1245000   34.19181       8.3888941      4            
   1246000   89.611594      20.980041      5            
   1247000   98.378095      24.12263       9            
   1248000   36.471203      8.9301336      4            
   1249000   44.905253      11.018927      3            
   1250000   38.072192      9.3419743      3            
   1251000   116.4656       28.580491      7            
   1252000   113.7941       27.922783      6            
   1253000   37.304969      9.1557244      3            
   1254000   37.892577      9.2978436      2            
   1255000   36.090876      8.8556289      3            
   1256000   121.41835      29.949653      10           
   1257000   37.139915      9.1121098      4            
   1258000   123.73216      30.363968      4            
   1259000   101.34573      24.725031      6            
   1260000   123.21209      29.553478      3            
   1261000   45.065079      11.053557      7            
   1262000   8.5653372      2.1015186      1            
   1263000   43.026611      10.558498      2            
   1264000   53.781499      13.197125      4            
   1265000   92.810944      22.224049      5            
   1266000   29.602338      7.2628154      4            
   1267000   82.878354      20.335566      6            
   1268000   30.060623      7.0436084      4            
   1269000   47.094004      11.550585      5            
   1270000   44.423334      10.780844      5            
   1271000   92.235707      22.63413       4            
[...]
   2175000   23.765405      5.8307733      3            
   2176000   61.552595      15.087699      6            
   2177000   59.828422      14.680466      6            
   2178000   120.2528       29.501659      6            
   2179000   19.274222      4.7288649      3            
   2180000   38.49048       9.4478605      3            
   2181000   14.209349      3.4857417      2            
   2182000   5.5969063      1.3730072      1            
   2183000   92.590529      22.719053      6            
   2184000   40.901509      10.036142      3            
   2185000   59.770382      14.666394      5            
   2186000   114.56628      28.113319      6            
   2187000   59.296245      14.550785      3            
   2188000   158.91096      38.90739       11           
   2189000   17.831112      4.3755255      1            
   2190000   55.049803      13.508434      3            
   2191000   48.274777      11.845622      3            
   2192000   84.560724      20.748824      4            
   2193000   113.2455       27.744293      5            
   2194000   29.376106      7.2068754      4            
   2195000   48.547508      11.912072      4            
   2196000   70.782738      17.369567      4            
   2197000   187.77503      46.078991      10           
   2198000   59.070819      14.494434      5            
   2199000   104.58626      25.662734      7            
   2200000   24.887435      6.1050201      5            
   2201000   82.651634      20.276272      6            
   2202000   31.164513      7.646716       3            
   2203000   87.709679      21.52298       6            
   2204000   53.355096      13.091272      5            
   2205000   152.93585      37.495672      6            
   2206000   9.3474718      2.2905251      3            
   2207000   38.296556      9.3981039      3            
   2208000   33.449134      8.2035955      3            
   2209000   41.657184      10.221042      3            
   2210000   54.826124      13.446849      3            
   2211000   18.057966      4.4254218      4            
   2212000   20.651962      4.9924201      3            
   2213000   58.401773      14.331807      3            
   2214000   19.503921      4.7848455      3            
   2215000   26.654834      6.525189       4            
   2216000   44.953919      11.030709      3            
   2217000   25.494937      6.2557172      3            
   2218000   50.374696      12.360018      5            
   2219000   12.388963      3.0393185      2            
   2220000   114.13241      28.008716      7            
   2221000   21.416552      5.2490308      3            
   2222000   47.585954      11.676159      4            
   2223000   152.22152      37.355779      6            
   2224000   91.345839      22.416436      4            
   2225000   48.611942      11.929068      2            
   2226000   25.329556      6.2147073      3            
   2227000   73.441772      18.020618      6            
   2228000   41.599656      10.206711      4            
   2229000   17.57303       4.3116061      2            
   2230000   20.289914      4.9784118      2            
   2231000   99.655422      24.195293      8            
   2232000   27.465622      6.7394592      2            
   2233000   49.185871      12.068832      4            
   2234000   98.854418      23.546682      6            
   2235000   73.746092      18.08758       5            
   2236000   137.97286      33.315919      5            
   2237000   111.33849      27.322973      6            
   2238000   31.143337      7.6417517      2            
   2239000   89.289731      21.911102      4            
   2240000   76.34215       18.737113      7            
   2241000   27.589553      6.7689516      4            
   2242000   57.598315      14.133417      4            
   2243000   82.044184      20.13351       3            
   2244000   78.143022      19.174209      5            
   2245000   36.216502      8.8867164      2            
   2246000   46.266755      11.352202      4            
   2247000   58.759489      14.418623      4            
   2248000   62.733897      15.35706       6            
   2249000   99.345017      24.378206      5            
   2250000   97.162297      23.803618      7            
   2251000   76.514083      18.591237      8            
   2252000   54.304647      13.305501      5            
   2253000   169.91982      41.677545      7            
   2254000   45.506579      11.165262      5            
   2255000   93.886544      23.037131      6            
   2256000   100.18946      24.58559       5            
   2257000   25.426205      6.2390385      4            
   2258000   49.60554       12.166337      5            
   2259000   26.902529      6.5999878      4            
   2260000   14.311035      3.5116287      1            
   2261000   39.70179       9.7430297      1            
   2262000   54.244238      13.310084      3            
   2263000   25.01329       6.135989       4            
   2264000   109.48738      26.86736       5            
   2265000   24.097991      5.9124114      3            
   2266000   62.2254        15.261105      5            
   2267000   74.592189      18.305231      4            
   2268000   50.73516       12.447822      5            
   2269000   124.61992      30.573472      9            
   2270000   6.9171882      1.6954028      2            
   2271000   14.836338      3.6399418      2            
   2272000   38.877642      9.5395098      3            
   2273000   81.761162      20.07071       8            
   2274000   40.529448      9.9445288      4            
   2275000   95.752335      23.48726       4            
   2276000   8.658065       2.1242765      1            
   2277000   102.46386      24.743121      8            
   2278000   16.119024      3.9547367      2            
   2279000   119.69959      29.371908      6            
   2280000   53.375391      13.097456      3            
   2281000   74.63326       18.31231       7            
   2282000   81.915612      20.101016      5            
   2283000   35.890823      8.8058566      4            
   2284000   37.044062      9.0907697      1            
   2285000   104.66879      25.683073      7            
   2286000   33.681013      8.2616251      4            
   2287000   21.591324      5.2977361      2            
   2288000   113.1785       27.773397      7            
   2289000   26.825097      6.5816313      3            
   2290000   75.967283      18.638247      5            
   2291000   122.00305      29.940126      3            
   2292000   39.730411      9.7494696      2            
   2293000   51.514626      12.639083      5            
   2294000   83.421311      20.415736      4            
   2295000   78.631675      19.298565      6            
   2296000   39.506221      9.6935528      6            
   2297000   89.217287      21.892799      6            
   2298000   90.29587       22.158324      4            
   2299000   38.680907      9.4899224      3            
   2300000   48.20936       11.829121      4            
   2301000   127.89662      31.301395      6            
   2302000   51.154066      12.554999      3            
   2303000   35.534236      8.7184952      3            
   2304000   13.677042      3.3560337      1            
   2305000   13.070768      3.2066996      2            
   2306000   34.114149      8.3638475      5            
   2307000   68.423544      16.785928      7            
   2308000   17.009655      4.1726514      3            
   2309000   13.024295      3.1955495      3            
   2310000   126.70328      31.085317      5            
   2311000   46.444835      11.396527      3            
   2312000   68.42373       16.777988      5            
   2313000   40.178128      9.8585997      3            
   2314000   44.903292      11.013885      4            
   2315000   52.003991      12.760056      5            
   2316000   82.125159      20.14865       3            
   2317000   32.950835      8.0855998      2            
   2318000   77.681328      18.990943      6            
   2319000   55.222406      13.154641      5            
   2320000   63.894294      15.675092      6            
   2321000   8.3737703      2.0539431      2            
   2322000   11.739255      2.8792909      3            
   2323000   60.01021       14.725135      5            
   2324000   118.79795      29.071866      7            
   2325000   48.114973      11.805813      5            
   2326000   5.0974657      1.2504354      1            
   2327000   120.51097      29.5546        7            
   2328000   47.986126      11.759906      5            
   2329000   75.212686      18.457199      3            
   2330000   91.401866      22.415487      6            
   2331000   21.282214      5.222496       1            
   2332000   144.70062      35.496756      5            
   2333000   55.410442      13.576726      4            
   2334000   24.557927      6.0258396      2            
   2335000   100.16711      24.577914      6            
   2336000   7.3256092      1.7974491      2            
   2337000   19.980595      4.9024517      2            
   2338000   55.294011      13.568021      4            
   2339000   100.40948      24.617012      6            
   2340000   95.794512      23.507274      5            
   2341000   54.819248      13.451827      3            
   2342000   49.381084      12.112034      5            
   2343000   50.753303      12.448493      5            
   2344000   37.284831      9.085271       4            
   2345000   63.702885      15.632011      4            
   2346000   71.190434      17.468608      6            
   2347000   92.615687      22.724084      7            
   2348000   36.708478      9.0058299      5            
   2349000   121.75717      29.561746      7            
   2350000   80.54958       19.436166      8            
   2351000   47.21822       11.586494      3            
   2352000   140.67705      34.11848       7            
   2353000   28.704506      7.0429008      3            
   2354000   115.01555      28.224791      4            
   2355000   15.237552      3.7390143      1            
   2356000   18.410715      4.5164153      3            
   2357000   138.51906      33.990305      7            
   2358000   47.707062      11.602909      5            
   2359000   62.083722      15.23424       5            
   2360000   44.127556      10.8292        1            
   2361000   150.50215      36.933358      5            
   2362000   91.226185      22.384768      6            
   2363000   26.247779      6.4352355      4            
   2364000   115.02179      28.149596      7            
   2365000   128.76419      31.580385      9            
   2366000   71.384763      17.515801      6            
   2367000   48.694064      11.947885      4            
   2368000   25.522518      6.2615962      3            
   2369000   64.997844      15.950693      2            
   2370000   42.747868      10.489791      3            
   2371000   90.075702      21.926957      8            
   2372000   123.59023      30.318619      9            
   2373000   135.24478      33.186862      6            
   2374000   132.38617      32.488449      6            
   2375000   39.753126      9.7558086      4            
   2376000   42.579027      10.445178      4            
   2377000   52.229455      12.772685      3            
   2378000   39.74119       9.7445571      3            
   2379000   71.926947      17.649994      2            
   2380000   49.257357      12.086283      4            
   2381000   8.9767423      2.2024857      1            
   2382000   9.9378382      2.4383586      1            
   2383000   18.906306      4.6378168      3            
   2384000   60.883623      14.732856      3            
   2385000   41.650113      10.136479      4            
   2386000   111.24829      27.299635      5            
   2387000   22.584019      5.5419851      1            
   2388000   115.15379      28.245529      5            
   2389000   82.213929      20.050021      6            
   2390000   69.796903      17.126915      5            
   2391000   8.850923       2.1710217      2            
   2392000   28.004111      6.8721841      1            
   2393000   142.8221       35.031157      8            
   2394000   158.98452      39.015604      4            
   2395000   109.88761      26.966772      5            
   2396000   50.141641      12.304264      3            
   2397000   54.682755      13.41836       3            
   2398000   4.0511452      0.99364607     1            
   2399000   124.26139      30.49573       5            
   2400000   67.323473      16.527604      3            
   2401000   122.86547      30.146642      7            
   2402000   154.80043      37.629352      9            
   2403000   61.891555      15.166783      6            
   2404000   73.546275      18.048041      3            
   2405000   60.83396       14.928196      3            
   2406000   82.63414       20.253027      7            
   2407000   11.107951      2.7255284      1            
   2408000   1.7652497      0.43264138     1            
   2409000   38.277181      9.388592       3            
   2410000   56.964743      13.97865       4            
   2411000   56.053561      13.737475      6            
   2412000   21.959154      5.3880011      2            
   2413000   10.908426      2.6748313      2            
   2414000   21.718249      5.3295075      1            
   2415000   67.747779      16.620788      5            
   2416000   42.930513      10.529363      4            
   2417000   10.167734      2.4947804      1            
   2418000   83.408271      20.466291      6            
   2419000   66.811375      16.394689      4            
   2420000   139.88177      34.22789       6            
   2421000   66.265344      16.257068      9            
   2422000   66.409693      16.28605       6            
   2423000   99.006431      24.296386      3            
   2424000   34.938149      8.571817       4            
   2425000   33.442347      8.2038184      6            
   2426000   17.668342      4.3349935      2            
   2427000   109.8434       26.953584      6            
   2428000   51.481372      12.14299       6            
   2429000   64.759316      15.732852      6            
   2430000   59.242127      14.537347      3            
   2431000   22.84276       5.6048972      2            
   2432000   66.299167      16.269387      3            
   2433000   87.55181       21.484462      6            
   2434000   94.037563      22.937915      5            
   2435000   82.718299      20.296856      5            
   2436000   65.737986      16.130123      5            
   2437000   20.577279      5.0483708      3            
   2438000   15.150186      3.7087069      3            
   2439000   112.21909      27.539633      2            
   2440000   65.186717      15.996014      5            
   2441000   121.22844      29.749592      4            
   2442000   56.998126      13.986896      4            
   2443000   108.13022      26.4789        5            
   2444000   68.19011       16.733268      3            
   2445000   48.829863      11.982432      4            
   2446000   26.024353      6.3863113      1            
   2447000   15.036795      3.6891488      2            
   2448000   43.511547      10.504772      4            
   2449000   6.6044895      1.6202886      1            
   2450000   48.965465      12.014488      5            
   2451000   9.7660919      2.3950456      3            
   2452000   133.93105      32.810297      7            
   2453000   24.428031      5.9952969      2            
   2454000   55.529237      13.626397      3            
   2455000   77.357522      18.922007      6            
   2456000   136.24391      33.429529      5            
   2457000   57.801573      14.182742      5            
   2458000   80.42534       19.729509      5            
   2459000   34.582641      8.4721905      4            
   2460000   0.54292905     0.13266061     1            
   2461000   55.985178      13.736195      5            
   2462000   68.918047      16.905218      6            
   2463000   32.919939      8.0784466      4            
   2464000   75.281411      18.472014      6            
   2465000   83.373235      20.458831      6            
   2466000   63.651026      15.615253      5            
   2467000   22.889696      5.615293       4            
   2468000   83.251737      20.427433      5            
   2469000   34.502861      8.4657206      4            
   2470000   44.094184      10.819878      3            
   2471000   69.827582      17.108231      6            
   2472000   110.98444      27.232763      6            
   2473000   100.41733      24.641864      4            
   2474000   19.909367      4.8844224      3            
   2475000   52.679331      12.927465      2            
   2476000   29.938451      7.3457735      3            
   2477000   31.437098      7.7141331      2            
   2478000   30.060287      7.3761994      2            
   2479000   129.74851      31.357317      5            
   2480000   45.143497      11.075717      5            
   2481000   58.523937      14.358607      6            
   2482000   38.982755      9.5613244      5            
   2483000   54.056963      13.259635      6            
   2484000   12.061109      2.9594525      1            
   2485000   57.897679      14.206303      7            
   2486000   67.168579      16.453802      7            
   2487000   155.49419      38.150106      8            
   2488000   39.090353      9.5929964      3            
   2489000   30.909735      7.5832281      4            
   2490000   53.463815      13.118736      4            
   2491000   118.88054      29.172532      5            
   2492000   105.23035      25.683649      8            
   2493000   83.804972      20.566212      2            
   2494000   186.25667      45.709284      3            
   2495000   7.8692192      1.9255681      4            
   2496000   31.550275      7.7413462      3            
   2497000   145.34578      35.66659       5            
   2498000   113.15928      27.769912      7            
   2499000   79.165144      19.413923      6            
   2500000   60.099701      14.746952      4            
   2501000   22.894034      5.6180683      1            
   2502000   40.312205      9.8919159      3            
Loop time of 381.393 on 8 procs for 2500000 steps with 9 atoms

Performance: 566.345 ns/day, 0.042 hours/ns, 6554.914 timesteps/s, 58.994 katom-step/s
798.6% CPU use with 1 MPI tasks x 8 OpenMP threads

MPI task timing breakdown:
Section |  min time  |  avg time  |  max time  |%varavg| %total
---------------------------------------------------------------
Pair    | 6.1973     | 6.1973     | 6.1973     |   0.0 |  1.62
Bond    | 11.968     | 11.968     | 11.968     |   0.0 |  3.14
Kspace  | 287.88     | 287.88     | 287.88     |   0.0 | 75.48
Neigh   | 0.24338    | 0.24338    | 0.24338    |   0.0 |  0.06
Comm    | 1.1777     | 1.1777     | 1.1777     |   0.0 |  0.31
Output  | 0.046139   | 0.046139   | 0.046139   |   0.0 |  0.01
Modify  | 73.127     | 73.127     | 73.127     |   0.0 | 19.17
Other   |            | 0.7531     |            |       |  0.20

Nlocal:              9 ave           9 max           9 min
Histogram: 1 0 0 0 0 0 0 0 0 0
Nghost:             27 ave          27 max          27 min
Histogram: 1 0 0 0 0 0 0 0 0 0
Neighs:              9 ave           9 max           9 min
Histogram: 1 0 0 0 0 0 0 0 0 0

Total # of neighbors = 9
Ave neighs/atom = 1
Ave special neighs/atom = 2
Neighbor list builds = 301626
Dangerous builds = 0
Total wall time: 0:06:22
